formula,original_formula,thermal_expansion,li ion conductivity
Li0.1207Al0.0172Fe0.0517Ti0.0345P0.1552O0.6207,Li2.3333Al0.3333Fe1.0Ti0.6667P3O12,6.972733,0.6670438386005184
Li0.1207Al0.0259Fe0.0431Ti0.0345P0.1552O0.6207,Li2.3333Al0.5Fe0.8333Ti0.6667P3O12,8.377187,0.011667107407376651
Li0.1207Al0.0431Fe0.0259Ti0.0345P0.1552O0.6207,Li2.3333Al0.8333Fe0.5Ti0.6667P3O12,8.454553,0.02463009806552802
Li0.1207Al0.0517Fe0.0172Ti0.0345P0.1552O0.6207,Li2.3333Al1.0Fe0.3333Ti0.6667P3O12,9.533785,0.5725569608981138
Li0.1207Al0.0690Fe0.0000Ti0.0345P0.1552O0.6207,Li2.3333Al1.3333Fe0.0Ti0.6667P3O12,9.286814,
Li0.1282Al0.0000Fe0.0769Ti0.0256P0.1538O0.6154,Li2.5Al0.0Fe1.5Ti0.5P3O12,7.040515,
Li0.1282Al0.0085Fe0.0684Ti0.0256P0.1538O0.6154,Li2.5Al0.1667Fe1.3333Ti0.5P3O12,7.040515,0.3259086265070098
Li0.1282Al0.0171Fe0.0598Ti0.0256P0.1538O0.6154,Li2.5Al0.3333Fe1.1667Ti0.5P3O12,7.040515,0.7436101036032838
Li0.1282Al0.0256Fe0.0513Ti0.0256P0.1538O0.6154,Li2.5Al0.5Fe1.0Ti0.5P3O12,8.377187,1.09228757125004
Li0.1282Al0.0342Fe0.0427Ti0.0256P0.1538O0.6154,Li2.5Al0.6667Fe0.8333Ti0.5P3O12,8.377187,0.011267719160955746
Li0.1282Al0.0427Fe0.0342Ti0.0256P0.1538O0.6154,Li2.5Al0.8333Fe0.6667Ti0.5P3O12,8.454553,0.015311696352893093
Li0.1282Al0.0513Fe0.0256Ti0.0256P0.1538O0.6154,Li2.5Al1.0Fe0.5Ti0.5P3O12,8.454553,0.7377936991878776
Li0.1282Al0.0598Fe0.0171Ti0.0256P0.1538O0.6154,Li2.5Al1.1667Fe0.3333Ti0.5P3O12,9.286814,0.6156161123820647
Li0.1282Al0.0684Fe0.0085Ti0.0256P0.1538O0.6154,Li2.5Al1.3333Fe0.1667Ti0.5P3O12,9.286814,0.4079119026674102
Li0.1282Al0.0769Fe0.0000Ti0.0256P0.1538O0.6154,Li2.5Al1.5Fe0.0Ti0.5P3O12,9.286814,
Li0.1356Al0.0000Fe0.0847Ti0.0169P0.1525O0.6102,Li2.6667Al0.0Fe1.6667Ti0.3333P3O12,7.040515,
Li0.1356Al0.0085Fe0.0763Ti0.0169P0.1525O0.6102,Li2.6667Al0.1667Fe1.5Ti0.3333P3O12,7.040515,0.4043939121618211
Li0.1356Al0.0254Fe0.0593Ti0.0169P0.1525O0.6102,Li2.6667Al0.5Fe1.1667Ti0.3333P3O12,8.444969,1.296652868078683
Li0.1356Al0.0339Fe0.0508Ti0.0169P0.1525O0.6102,Li2.6667Al0.6667Fe1.0Ti0.3333P3O12,8.377187,1.5999532207906582
Li0.1356Al0.0508Fe0.0339Ti0.0169P0.1525O0.6102,Li2.6667Al1.0Fe0.6667Ti0.3333P3O12,8.454553,0.9254184590613855
Li0.1356Al0.0593Fe0.0254Ti0.0169P0.1525O0.6102,Li2.6667Al1.1667Fe0.5Ti0.3333P3O12,8.20758,0.824926875835376
Li0.1356Al0.0763Fe0.0085Ti0.0169P0.1525O0.6102,Li2.6667Al1.5Fe0.1667Ti0.3333P3O12,9.286814,0.47091434811265714
Li0.1356Al0.0847Fe0.0000Ti0.0169P0.1525O0.6102,Li2.6667Al1.6667Fe0.0Ti0.3333P3O12,9.286814,
Li0.1429Al0.0000Fe0.0924Ti0.0084P0.1513O0.6050,Li2.8333Al0.0Fe1.8333Ti0.1667P3O12,10.772052,
Li0.1429Al0.0168Fe0.0756Ti0.0084P0.1513O0.6050,Li2.8333Al0.3333Fe1.5Ti0.1667P3O12,10.772052,1.2007260476649773
Li0.1429Al0.0252Fe0.0672Ti0.0084P0.1513O0.6050,Li2.8333Al0.5Fe1.3333Ti0.1667P3O12,12.176497,1.7084953534615004
Li0.1429Al0.0420Fe0.0504Ti0.0084P0.1513O0.6050,Li2.8333Al0.8333Fe1.0Ti0.1667P3O12,12.108715,2.3964300787936432
Li0.1429Al0.0504Fe0.0420Ti0.0084P0.1513O0.6050,Li2.8333Al1.0Fe0.8333Ti0.1667P3O12,12.108715,1.1835500714979246
Li0.1429Al0.0672Fe0.0252Ti0.0084P0.1513O0.6050,Li2.8333Al1.3333Fe0.5Ti0.1667P3O12,11.939111,1.0170735307890955
Li0.1429Al0.0756Fe0.0168Ti0.0084P0.1513O0.6050,Li2.8333Al1.5Fe0.3333Ti0.1667P3O12,13.018343,0.8780246689502035
Li0.1429Al0.0924Fe0.0000Ti0.0084P0.1513O0.6050,Li2.8333Al1.8333Fe0.0Ti0.1667P3O12,13.018343,
Li0.1500Al0.0000Fe0.1000Ti0.0000P0.1500O0.6000,Li3.0Al0.0Fe2.0Ti0.0P3O12,13.206304,
Li0.1500Al0.0083Fe0.0917Ti0.0000P0.1500O0.6000,Li3.0Al0.1667Fe1.8333Ti0.0P3O12,13.332053,
Li0.1500Al0.0167Fe0.0833Ti0.0000P0.1500O0.6000,Li3.0Al0.3333Fe1.6667Ti0.0P3O12,13.332053,
Li0.1500Al0.0250Fe0.0750Ti0.0000P0.1500O0.6000,Li3.0Al0.5Fe1.5Ti0.0P3O12,13.442711,
Li0.1500Al0.0333Fe0.0667Ti0.0000P0.1500O0.6000,Li3.0Al0.6667Fe1.3333Ti0.0P3O12,13.442711,
Li0.1500Al0.0417Fe0.0583Ti0.0000P0.1500O0.6000,Li3.0Al0.8333Fe1.1667Ti0.0P3O12,13.442711,
Li0.1500Al0.0500Fe0.0500Ti0.0000P0.1500O0.6000,Li3.0Al1.0Fe1.0Ti0.0P3O12,13.374928,
Li0.1500Al0.0583Fe0.0417Ti0.0000P0.1500O0.6000,Li3.0Al1.1667Fe0.8333Ti0.0P3O12,13.374928,
Li0.1500Al0.0667Fe0.0333Ti0.0000P0.1500O0.6000,Li3.0Al1.3333Fe0.6667Ti0.0P3O12,13.205323,
Li0.1500Al0.0750Fe0.0250Ti0.0000P0.1500O0.6000,Li3.0Al1.5Fe0.5Ti0.0P3O12,13.205323,
Li0.1500Al0.0833Fe0.0167Ti0.0000P0.1500O0.6000,Li3.0Al1.6667Fe0.3333Ti0.0P3O12,15.070612,
Li0.1500Al0.0917Fe0.0083Ti0.0000P0.1500O0.6000,Li3.0Al1.8333Fe0.1667Ti0.0P3O12,15.070612,
Li0.1500Al0.1000Fe0.0000Ti0.0000P0.1500O0.6000,Li3.0Al2.0Fe0.0Ti0.0P3O12,15.867943,
Li0.0556Al0.0000Ga0.0000Ti0.1111P0.1667O0.6667,Li1.0Al0.0Ga0.0Ti2.0P3O12,7.7087817,
Li0.0642Al0.0000Ga0.0092Ti0.1009P0.1651O0.6605,Li1.1667Al0.0Ga0.1667Ti1.8333P3O12,7.7087817,
Li0.0642Al0.0092Ga0.0000Ti0.1009P0.1651O0.6605,Li1.1667Al0.1667Ga0.0Ti1.8333P3O12,7.7087817,
Li0.0727Al0.0000Ga0.0182Ti0.0909P0.1636O0.6545,Li1.3333Al0.0Ga0.3333Ti1.6667P3O12,7.678768,
Li0.0727Al0.0182Ga0.0000Ti0.0909P0.1636O0.6545,Li1.3333Al0.3333Ga0.0Ti1.6667P3O12,9.113234,
Li0.0811Al0.0000Ga0.0270Ti0.0811P0.1622O0.6486,Li1.5Al0.0Ga0.5Ti1.5P3O12,7.7207913,
Li0.0811Al0.0090Ga0.0180Ti0.0811P0.1622O0.6486,Li1.5Al0.1667Ga0.3333Ti1.5P3O12,7.7207913,1.9211888214220212
Li0.0811Al0.0180Ga0.0090Ti0.0811P0.1622O0.6486,Li1.5Al0.3333Ga0.1667Ti1.5P3O12,9.155256,5.265820658857016
Li0.0811Al0.0270Ga0.0000Ti0.0811P0.1622O0.6486,Li1.5Al0.5Ga0.0Ti1.5P3O12,9.155256,
Li0.0893Al0.0000Ga0.0357Ti0.0714P0.1607O0.6429,Li1.6667Al0.0Ga0.6667Ti1.3333P3O12,8.099321,
Li0.0893Al0.0089Ga0.0268Ti0.0714P0.1607O0.6429,Li1.6667Al0.1667Ga0.5Ti1.3333P3O12,8.099321,1.6336780540194067
Li0.1053B0.0439Fe0.0088Ti0.0526P0.1579O0.6316,Li2.0B0.8333Fe0.1667Ti1.0P3O12,8.129335,16.678408895756704
Li0.0893Al0.0357Ga0.0000Ti0.0714P0.1607O0.6429,Li1.6667Al0.6667Ga0.0Ti1.3333P3O12,9.533785,
Li0.0973Al0.0000Ga0.0442Ti0.0619P0.1593O0.6372,Li1.8333Al0.0Ga0.8333Ti1.1667P3O12,8.099321,
Li0.0973Al0.0177Ga0.0265Ti0.0619P0.1593O0.6372,Li1.8333Al0.3333Ga0.5Ti1.1667P3O12,9.476832,3.5818895998666256
Li0.0973Al0.0265Ga0.0177Ti0.0619P0.1593O0.6372,Li1.8333Al0.5Ga0.3333Ti1.1667P3O12,9.476832,5.875384497273922
Li0.0973Al0.0442Ga0.0000Ti0.0619P0.1593O0.6372,Li1.8333Al0.8333Ga0.0Ti1.1667P3O12,9.533785,
Li0.1053Al0.0000Ga0.0526Ti0.0526P0.1579O0.6316,Li2.0Al0.0Ga1.0Ti1.0P3O12,8.099321,
Li0.1053Al0.0088Ga0.0439Ti0.0526P0.1579O0.6316,Li2.0Al0.1667Ga0.8333Ti1.0P3O12,8.099321,1.2590543823517402
Li0.1053Al0.0175Ga0.0351Ti0.0526P0.1579O0.6316,Li2.0Al0.3333Ga0.6667Ti1.0P3O12,8.099321,3.189523211196491
Li0.1053Al0.0263Ga0.0263Ti0.0526P0.1579O0.6316,Li2.0Al0.5Ga0.5Ti1.0P3O12,9.476832,5.158817483337874
Li0.1053B0.0439As0.0088Ti0.0526P0.1579O0.6316,Li2.0B0.8333As0.1667Ti1.0P3O12,8.129335,16.089917489323494
Li0.1053B0.0439Mn0.0088Ti0.0526P0.1579O0.6316,Li2.0B0.8333Mn0.1667Ti1.0P3O12,8.129335,15.385550745886041
Li0.1053Al0.0526Ga0.0000Ti0.0526P0.1579O0.6316,Li2.0Al1.0Ga0.0Ti1.0P3O12,9.533785,
Li0.1130Al0.0000Ga0.0609Ti0.0435P0.1565O0.6261,Li2.1667Al0.0Ga1.1667Ti0.8333P3O12,6.7658024,
Li0.1130Al0.0087Ga0.0522Ti0.0435P0.1565O0.6261,Li2.1667Al0.1667Ga1.0Ti0.8333P3O12,8.099321,0.03977754584948856
Li0.1130Al0.0261Ga0.0348Ti0.0435P0.1565O0.6261,Li2.1667Al0.5Ga0.6667Ti0.8333P3O12,9.476832,0.544605866181769
Li0.1130Al0.0348Ga0.0261Ti0.0435P0.1565O0.6261,Li2.1667Al0.6667Ga0.5Ti0.8333P3O12,9.476832,0.7604561736513267
Li0.1130Al0.0522Ga0.0087Ti0.0435P0.1565O0.6261,Li2.1667Al1.0Ga0.1667Ti0.8333P3O12,9.533785,0.00011806771464947906
Li0.1130Al0.0609Ga0.0000Ti0.0435P0.1565O0.6261,Li2.1667Al1.1667Ga0.0Ti0.8333P3O12,9.286814,
Li0.1207Al0.0000Ga0.0690Ti0.0345P0.1552O0.6207,Li2.3333Al0.0Ga1.3333Ti0.6667P3O12,6.7658024,
Li0.1207Al0.0172Ga0.0517Ti0.0345P0.1552O0.6207,Li2.3333Al0.3333Ga1.0Ti0.6667P3O12,8.099321,0.11788500818961223
Li0.1207Al0.0259Ga0.0431Ti0.0345P0.1552O0.6207,Li2.3333Al0.5Ga0.8333Ti0.6667P3O12,9.476832,0.42915142505840936
Li0.1207Al0.0431Ga0.0259Ti0.0345P0.1552O0.6207,Li2.3333Al0.8333Ga0.5Ti0.6667P3O12,9.476832,0.7812766792279525
Li0.1207Al0.0517Ga0.0172Ti0.0345P0.1552O0.6207,Li2.3333Al1.0Ga0.3333Ti0.6667P3O12,9.476832,0.00011945090514891488
Li0.1207Al0.0690Ga0.0000Ti0.0345P0.1552O0.6207,Li2.3333Al1.3333Ga0.0Ti0.6667P3O12,9.286814,
Li0.1282Al0.0000Ga0.0769Ti0.0256P0.1538O0.6154,Li2.5Al0.0Ga1.5Ti0.5P3O12,6.7658024,
Li0.1282Al0.0085Ga0.0684Ti0.0256P0.1538O0.6154,Li2.5Al0.1667Ga1.3333Ti0.5P3O12,6.7658024,0.05661612976400067
Li0.1282Al0.0171Ga0.0598Ti0.0256P0.1538O0.6154,Li2.5Al0.3333Ga1.1667Ti0.5P3O12,6.7658024,0.14831221123923877
Li0.1282Al0.0256Ga0.0513Ti0.0256P0.1538O0.6154,Li2.5Al0.5Ga1.0Ti0.5P3O12,9.476832,0.22275596475290485
Li0.1282Al0.0342Ga0.0427Ti0.0256P0.1538O0.6154,Li2.5Al0.6667Ga0.8333Ti0.5P3O12,9.476832,0.44863178442459567
Li0.1282Al0.0427Ga0.0342Ti0.0256P0.1538O0.6154,Li2.5Al0.8333Ga0.6667Ti0.5P3O12,9.476832,0.5840691031892845
Li0.1282Al0.0513Ga0.0256Ti0.0256P0.1538O0.6154,Li2.5Al1.0Ga0.5Ti0.5P3O12,9.476832,0.00015785432773098837
Li0.1282Al0.0598Ga0.0171Ti0.0256P0.1538O0.6154,Li2.5Al1.1667Ga0.3333Ti0.5P3O12,9.301199,0.00015251896869754165
Li0.1282Al0.0684Ga0.0085Ti0.0256P0.1538O0.6154,Li2.5Al1.3333Ga0.1667Ti0.5P3O12,9.286814,0.00016558094352829426
Li0.1282Al0.0769Ga0.0000Ti0.0256P0.1538O0.6154,Li2.5Al1.5Ga0.0Ti0.5P3O12,9.286814,
Li0.1356Al0.0000Ga0.0847Ti0.0169P0.1525O0.6102,Li2.6667Al0.0Ga1.6667Ti0.3333P3O12,6.7658024,
Li0.1356Al0.0085Ga0.0763Ti0.0169P0.1525O0.6102,Li2.6667Al0.1667Ga1.5Ti0.3333P3O12,6.7658024,0.08235273442897588
Li0.1356Al0.0254Ga0.0593Ti0.0169P0.1525O0.6102,Li2.6667Al0.5Ga1.1667Ti0.3333P3O12,8.143311,0.29039273964542
Li0.1356Al0.0339Ga0.0508Ti0.0169P0.1525O0.6102,Li2.6667Al0.6667Ga1.0Ti0.3333P3O12,9.476832,0.35147920061919474
Li0.1356Al0.0508Ga0.0339Ti0.0169P0.1525O0.6102,Li2.6667Al1.0Ga0.6667Ti0.3333P3O12,9.476832,0.00027366582895892627
Li0.1356Al0.0593Ga0.0254Ti0.0169P0.1525O0.6102,Li2.6667Al1.1667Ga0.5Ti0.3333P3O12,9.301199,0.00025378428271029794
Li0.1356Al0.0763Ga0.0085Ti0.0169P0.1525O0.6102,Li2.6667Al1.5Ga0.1667Ti0.3333P3O12,9.286814,0.00025867646656703956
Li0.1356Al0.0847Ga0.0000Ti0.0169P0.1525O0.6102,Li2.6667Al1.6667Ga0.0Ti0.3333P3O12,9.286814,
Li0.1429Al0.0000Ga0.0924Ti0.0084P0.1513O0.6050,Li2.8333Al0.0Ga1.8333Ti0.1667P3O12,10.497339,
Li0.1429Al0.0168Ga0.0756Ti0.0084P0.1513O0.6050,Li2.8333Al0.3333Ga1.5Ti0.1667P3O12,10.497339,0.3172984444612287
Li0.1429Al0.0252Ga0.0672Ti0.0084P0.1513O0.6050,Li2.8333Al0.5Ga1.3333Ti0.1667P3O12,11.874846,0.44501221811823727
Li0.1429Al0.0420Ga0.0504Ti0.0084P0.1513O0.6050,Li2.8333Al0.8333Ga1.0Ti0.1667P3O12,13.208362,0.6032201704157778
Li0.1429Al0.0504Ga0.0420Ti0.0084P0.1513O0.6050,Li2.8333Al1.0Ga0.8333Ti0.1667P3O12,13.208362,0.0007489989364185094
Li0.1429Al0.0672Ga0.0252Ti0.0084P0.1513O0.6050,Li2.8333Al1.3333Ga0.5Ti0.1667P3O12,13.032728,0.0006201335630557619
Li0.1429Al0.0756Ga0.0168Ti0.0084P0.1513O0.6050,Li2.8333Al1.5Ga0.3333Ti0.1667P3O12,13.032728,0.00059760720517466
Li0.1429Al0.0924Ga0.0000Ti0.0084P0.1513O0.6050,Li2.8333Al1.8333Ga0.0Ti0.1667P3O12,13.018343,
Li0.1500Al0.0000Ga0.1000Ti0.0000P0.1500O0.6000,Li3.0Al0.0Ga2.0Ti0.0P3O12,13.755412,
Li0.1500Al0.0083Ga0.0917Ti0.0000P0.1500O0.6000,Li3.0Al0.1667Ga1.8333Ti0.0P3O12,13.843395,
Li0.1500Al0.0167Ga0.0833Ti0.0000P0.1500O0.6000,Li3.0Al0.3333Ga1.6667Ti0.0P3O12,13.843395,
Li0.1500Al0.0250Ga0.0750Ti0.0000P0.1500O0.6000,Li3.0Al0.5Ga1.5Ti0.0P3O12,13.9271145,
Li0.1500Al0.0333Ga0.0667Ti0.0000P0.1500O0.6000,Li3.0Al0.6667Ga1.3333Ti0.0P3O12,13.9271145,
Li0.1500Al0.0417Ga0.0583Ti0.0000P0.1500O0.6000,Li3.0Al0.8333Ga1.1667Ti0.0P3O12,15.26063,
Li0.1500Al0.0500Ga0.0500Ti0.0000P0.1500O0.6000,Li3.0Al1.0Ga1.0Ti0.0P3O12,15.26063,
Li0.1500Al0.0583Ga0.0417Ti0.0000P0.1500O0.6000,Li3.0Al1.1667Ga0.8333Ti0.0P3O12,15.26063,
Li0.1500Al0.0667Ga0.0333Ti0.0000P0.1500O0.6000,Li3.0Al1.3333Ga0.6667Ti0.0P3O12,15.084997,
Li0.1500Al0.0750Ga0.0250Ti0.0000P0.1500O0.6000,Li3.0Al1.5Ga0.5Ti0.0P3O12,15.084997,
Li0.1500Al0.0833Ga0.0167Ti0.0000P0.1500O0.6000,Li3.0Al1.6667Ga0.3333Ti0.0P3O12,15.084997,
Li0.1500Al0.0917Ga0.0083Ti0.0000P0.1500O0.6000,Li3.0Al1.8333Ga0.1667Ti0.0P3O12,15.070612,
Li0.1500Al0.1000Ga0.0000Ti0.0000P0.1500O0.6000,Li3.0Al2.0Ga0.0Ti0.0P3O12,15.867943,
Li0.0556Al0.0000In0.0000Ti0.1111P0.1667O0.6667,Li1.0Al0.0In0.0Ti2.0P3O12,7.7087817,
Li0.0642Al0.0000In0.0092Ti0.1009P0.1651O0.6605,Li1.1667Al0.0In0.1667Ti1.8333P3O12,7.7087817,
Li0.0642Al0.0092In0.0000Ti0.1009P0.1651O0.6605,Li1.1667Al0.1667In0.0Ti1.8333P3O12,7.7087817,
Li0.0727Al0.0000In0.0182Ti0.0909P0.1636O0.6545,Li1.3333Al0.0In0.3333Ti1.6667P3O12,8.017441,
Li0.0727Al0.0182In0.0000Ti0.0909P0.1636O0.6545,Li1.3333Al0.3333In0.0Ti1.6667P3O12,9.113234,
Li0.0811Al0.0000In0.0270Ti0.0811P0.1622O0.6486,Li1.5Al0.0In0.5Ti1.5P3O12,8.31198,
Li0.0811Al0.0090In0.0180Ti0.0811P0.1622O0.6486,Li1.5Al0.1667In0.3333Ti1.5P3O12,8.036197,0.9893959994639032
Li0.0811Al0.0180In0.0090Ti0.0811P0.1622O0.6486,Li1.5Al0.3333In0.1667Ti1.5P3O12,9.155256,2.891730389091221
Li0.0811Al0.0270In0.0000Ti0.0811P0.1622O0.6486,Li1.5Al0.5In0.0Ti1.5P3O12,9.155256,
Li0.0893Al0.0000In0.0357Ti0.0714P0.1607O0.6429,Li1.6667Al0.0In0.6667Ti1.3333P3O12,8.690509,
Li0.0893Al0.0089In0.0268Ti0.0714P0.1607O0.6429,Li1.6667Al0.1667In0.5Ti1.3333P3O12,8.690509,0.8196066095077797
Li0.0893Al0.0268In0.0089Ti0.0714P0.1607O0.6429,Li1.6667Al0.5In0.1667Ti1.3333P3O12,9.533785,4.074879898218387
Li0.0893Al0.0357In0.0000Ti0.0714P0.1607O0.6429,Li1.6667Al0.6667In0.0Ti1.3333P3O12,9.533785,
Li0.0973Al0.0000In0.0442Ti0.0619P0.1593O0.6372,Li1.8333Al0.0In0.8333Ti1.1667P3O12,8.690509,
Li0.0973Al0.0177In0.0265Ti0.0619P0.1593O0.6372,Li1.8333Al0.3333In0.5Ti1.1667P3O12,10.445254,1.8317381809837965
Li0.0973Al0.0265In0.0177Ti0.0619P0.1593O0.6372,Li1.8333Al0.5In0.3333Ti1.1667P3O12,10.169471,3.2044290189173905
Li0.0973Al0.0442In0.0000Ti0.0619P0.1593O0.6372,Li1.8333Al0.8333In0.0Ti1.1667P3O12,9.533785,
Li0.1053Al0.0000In0.0526Ti0.0526P0.1579O0.6316,Li2.0Al0.0In1.0Ti1.0P3O12,8.690509,
Li0.1053Al0.0088In0.0439Ti0.0526P0.1579O0.6316,Li2.0Al0.1667In0.8333Ti1.0P3O12,8.690509,0.6434811273356003
Li0.1053Al0.0175In0.0351Ti0.0526P0.1579O0.6316,Li2.0Al0.3333In0.6667Ti1.0P3O12,8.690509,1.5985546347445094
Li0.1053Al0.0263In0.0263Ti0.0526P0.1579O0.6316,Li2.0Al0.5In0.5Ti1.0P3O12,10.445254,2.712427832075128
Li0.1053Al0.0351In0.0175Ti0.0526P0.1579O0.6316,Li2.0Al0.6667In0.3333Ti1.0P3O12,10.128677,3.9899079562354354
Li0.1053Al0.0439In0.0088Ti0.0526P0.1579O0.6316,Li2.0Al0.8333In0.1667Ti1.0P3O12,9.533785,5.708637039056154
Li0.1053Al0.0526In0.0000Ti0.0526P0.1579O0.6316,Li2.0Al1.0In0.0Ti1.0P3O12,9.533785,
Li0.1130Al0.0000In0.0609Ti0.0435P0.1565O0.6261,Li2.1667Al0.0In1.1667Ti0.8333P3O12,8.690509,
Li0.1130Al0.0087In0.0522Ti0.0435P0.1565O0.6261,Li2.1667Al0.1667In1.0Ti0.8333P3O12,8.690509,0.0209711330205771
Li0.1130Al0.0261In0.0348Ti0.0435P0.1565O0.6261,Li2.1667Al0.5In0.6667Ti0.8333P3O12,10.445254,0.0505826324038918
Li0.1130Al0.0348In0.0261Ti0.0435P0.1565O0.6261,Li2.1667Al0.6667In0.5Ti0.8333P3O12,10.445254,0.08008058922895273
Li0.1130Al0.0522In0.0087Ti0.0435P0.1565O0.6261,Li2.1667Al1.0In0.1667Ti0.8333P3O12,9.533785,0.0004150734568797659
Li0.1130Al0.0609In0.0000Ti0.0435P0.1565O0.6261,Li2.1667Al1.1667In0.0Ti0.8333P3O12,9.286814,
Li0.1207Al0.0000In0.0690Ti0.0345P0.1552O0.6207,Li2.3333Al0.0In1.3333Ti0.6667P3O12,8.690509,
Li0.1207Al0.0172In0.0517Ti0.0345P0.1552O0.6207,Li2.3333Al0.3333In1.0Ti0.6667P3O12,8.690509,0.059940907246159636
Li0.1207Al0.0259In0.0431Ti0.0345P0.1552O0.6207,Li2.3333Al0.5In0.8333Ti0.6667P3O12,10.445254,0.03742724223360155
Li0.1207Al0.0431In0.0259Ti0.0345P0.1552O0.6207,Li2.3333Al0.8333In0.5Ti0.6667P3O12,10.445254,0.08201669845954732
Li0.1207Al0.0517In0.0172Ti0.0345P0.1552O0.6207,Li2.3333Al1.0In0.3333Ti0.6667P3O12,10.128677,0.0003167893472207081
Li0.1207Al0.0690In0.0000Ti0.0345P0.1552O0.6207,Li2.3333Al1.3333In0.0Ti0.6667P3O12,9.286814,
Li0.1282Al0.0000In0.0769Ti0.0256P0.1538O0.6154,Li2.5Al0.0In1.5Ti0.5P3O12,5.7995377,
Li0.1282Al0.0085In0.0684Ti0.0256P0.1538O0.6154,Li2.5Al0.1667In1.3333Ti0.5P3O12,8.690509,0.028228722405499236
Li0.1282Al0.0171In0.0598Ti0.0256P0.1538O0.6154,Li2.5Al0.3333In1.1667Ti0.5P3O12,8.690509,0.07051335358038564
Li0.1282Al0.0256In0.0513Ti0.0256P0.1538O0.6154,Li2.5Al0.5In1.0Ti0.5P3O12,10.445254,0.11296184732141089
Li0.1282Al0.0342In0.0427Ti0.0256P0.1538O0.6154,Li2.5Al0.6667In0.8333Ti0.5P3O12,10.445254,0.04049913216107591
Li0.1282Al0.0427In0.0342Ti0.0256P0.1538O0.6154,Li2.5Al0.8333In0.6667Ti0.5P3O12,10.445254,0.05599329746460965
Li0.1282Al0.0513In0.0256Ti0.0256P0.1538O0.6154,Li2.5Al1.0In0.5Ti0.5P3O12,10.445254,0.0003311220178641793
Li0.1282Al0.0598In0.0171Ti0.0256P0.1538O0.6154,Li2.5Al1.1667In0.3333Ti0.5P3O12,10.007338,0.0003855007594827004
Li0.1282Al0.0684In0.0085Ti0.0256P0.1538O0.6154,Li2.5Al1.3333In0.1667Ti0.5P3O12,9.286814,0.0005021509330560497
Li0.1282Al0.0769In0.0000Ti0.0256P0.1538O0.6154,Li2.5Al1.5In0.0Ti0.5P3O12,9.286814,
Li0.1356Al0.0000In0.0847Ti0.0169P0.1525O0.6102,Li2.6667Al0.0In1.6667Ti0.3333P3O12,5.7995377,
Li0.1356Al0.0085In0.0763Ti0.0169P0.1525O0.6102,Li2.6667Al0.1667In1.5Ti0.3333P3O12,8.690509,0.03705621077697588
Li0.1356Al0.0254In0.0593Ti0.0169P0.1525O0.6102,Li2.6667Al0.5In1.1667Ti0.3333P3O12,10.445254,0.14432634950352288
Li0.1356Al0.0339In0.0508Ti0.0169P0.1525O0.6102,Li2.6667Al0.6667In1.0Ti0.3333P3O12,10.445254,0.1889299923562322
Li0.1356Al0.0508In0.0339Ti0.0169P0.1525O0.6102,Li2.6667Al1.0In0.6667Ti0.3333P3O12,10.445254,0.00046351957216496224
Li0.1356Al0.0593In0.0254Ti0.0169P0.1525O0.6102,Li2.6667Al1.1667In0.5Ti0.3333P3O12,10.459963,0.0004970506453455953
Li0.1356Al0.0763In0.0085Ti0.0169P0.1525O0.6102,Li2.6667Al1.5In0.1667Ti0.3333P3O12,9.286814,0.0006848900864639564
Li0.1356Al0.0847In0.0000Ti0.0169P0.1525O0.6102,Li2.6667Al1.6667In0.0Ti0.3333P3O12,9.286814,
Li0.1429Al0.0000In0.0924Ti0.0084P0.1513O0.6050,Li2.8333Al0.0In1.8333Ti0.1667P3O12,9.531069,
Li0.1429Al0.0168In0.0756Ti0.0084P0.1513O0.6050,Li2.8333Al0.3333In1.5Ti0.1667P3O12,12.422039,0.14181508545567728
Li0.1429Al0.0252In0.0672Ti0.0084P0.1513O0.6050,Li2.8333Al0.5In1.3333Ti0.1667P3O12,14.176782,0.22619320329199144
Li0.1429Al0.0420In0.0504Ti0.0084P0.1513O0.6050,Li2.8333Al0.8333In1.0Ti0.1667P3O12,14.176782,0.3347118421293539
Li0.1429Al0.0504In0.0420Ti0.0084P0.1513O0.6050,Li2.8333Al1.0In0.8333Ti0.1667P3O12,14.176782,0.000992993338411308
Li0.1429Al0.0672In0.0252Ti0.0084P0.1513O0.6050,Li2.8333Al1.3333In0.5Ti0.1667P3O12,14.19149,0.001086073227123272
Li0.1429Al0.0756In0.0168Ti0.0084P0.1513O0.6050,Li2.8333Al1.5In0.3333Ti0.1667P3O12,13.738865,0.0011965751710954456
Li0.1429Al0.0924In0.0000Ti0.0084P0.1513O0.6050,Li2.8333Al1.8333In0.0Ti0.1667P3O12,13.018343,
Li0.1500Al0.0000In0.1000Ti0.0000P0.1500O0.6000,Li3.0Al0.0In2.0Ti0.0P3O12,12.877124,
Li0.1500Al0.0083In0.0917Ti0.0000P0.1500O0.6000,Li3.0Al0.1667In1.8333Ti0.0P3O12,12.877124,
Li0.1500Al0.0167In0.0833Ti0.0000P0.1500O0.6000,Li3.0Al0.3333In1.6667Ti0.0P3O12,12.877124,
Li0.1500Al0.0250In0.0750Ti0.0000P0.1500O0.6000,Li3.0Al0.5In1.5Ti0.0P3O12,16.229046,
Li0.1500Al0.0333In0.0667Ti0.0000P0.1500O0.6000,Li3.0Al0.6667In1.3333Ti0.0P3O12,16.229046,
Li0.1500Al0.0417In0.0583Ti0.0000P0.1500O0.6000,Li3.0Al0.8333In1.1667Ti0.0P3O12,16.229046,
Li0.1500Al0.0500In0.0500Ti0.0000P0.1500O0.6000,Li3.0Al1.0In1.0Ti0.0P3O12,16.229046,
Li0.1500Al0.0583In0.0417Ti0.0000P0.1500O0.6000,Li3.0Al1.1667In0.8333Ti0.0P3O12,16.229046,
Li0.1500Al0.0667In0.0333Ti0.0000P0.1500O0.6000,Li3.0Al1.3333In0.6667Ti0.0P3O12,16.243753,
Li0.1500Al0.0750In0.0250Ti0.0000P0.1500O0.6000,Li3.0Al1.5In0.5Ti0.0P3O12,16.243753,
Li0.1500Al0.0833In0.0167Ti0.0000P0.1500O0.6000,Li3.0Al1.6667In0.3333Ti0.0P3O12,15.791133,
Li0.1500Al0.0917In0.0083Ti0.0000P0.1500O0.6000,Li3.0Al1.8333In0.1667Ti0.0P3O12,15.070612,
Li0.1500Al0.1000In0.0000Ti0.0000P0.1500O0.6000,Li3.0Al2.0In0.0Ti0.0P3O12,15.867943,
Li0.0556Al0.0000Mn0.0000Ti0.1111P0.1667O0.6667,Li1.0Al0.0Mn0.0Ti2.0P3O12,7.7087817,
Li0.0642Al0.0000Mn0.0092Ti0.1009P0.1651O0.6605,Li1.1667Al0.0Mn0.1667Ti1.8333P3O12,7.7087817,
Li0.0642Al0.0092Mn0.0000Ti0.1009P0.1651O0.6605,Li1.1667Al0.1667Mn0.0Ti1.8333P3O12,7.7087817,
Li0.0727Al0.0000Mn0.0182Ti0.0909P0.1636O0.6545,Li1.3333Al0.0Mn0.3333Ti1.6667P3O12,7.7087817,
Li0.0727Al0.0182Mn0.0000Ti0.0909P0.1636O0.6545,Li1.3333Al0.3333Mn0.0Ti1.6667P3O12,9.113234,
Li0.0811Al0.0000Mn0.0270Ti0.0811P0.1622O0.6486,Li1.5Al0.0Mn0.5Ti1.5P3O12,7.750805,