formula,original_formula,thermal_expansion,li ion conductivity
Li0.1429Cr0.0252Y0.0672Ti0.0084P0.1513O0.6050,Li2.8333Cr0.5Y1.3333Ti0.1667P3O12,10.745177,0.06966960158978318
Li0.1429Cr0.0420Y0.0504Ti0.0084P0.1513O0.6050,Li2.8333Cr0.8333Y1.0Ti0.1667P3O12,11.74745,0.10199111179238163
Li0.1429Cr0.0504Y0.0420Ti0.0084P0.1513O0.6050,Li2.8333Cr1.0Y0.8333Ti0.1667P3O12,11.74745,0.11284364889748488
Li0.1429Cr0.0672Y0.0252Ti0.0084P0.1513O0.6050,Li2.8333Cr1.3333Y0.5Ti0.1667P3O12,17.151005,0.10177460089817537
Li0.1429Cr0.0756Y0.0168Ti0.0084P0.1513O0.6050,Li2.8333Cr1.5Y0.3333Ti0.1667P3O12,17.151005,0.09549821432569443
Li0.1429Cr0.0924Y0.0000Ti0.0084P0.1513O0.6050,Li2.8333Cr1.8333Y0.0Ti0.1667P3O12,17.431204,
Li0.1500Cr0.0000Y0.1000Ti0.0000P0.1500O0.6000,Li3.0Cr0.0Y2.0Ti0.0P3O12,14.091233,
Li0.1500Cr0.0083Y0.0917Ti0.0000P0.1500O0.6000,Li3.0Cr0.1667Y1.8333Ti0.0P3O12,14.091233,
Li0.1500Cr0.0167Y0.0833Ti0.0000P0.1500O0.6000,Li3.0Cr0.3333Y1.6667Ti0.0P3O12,14.091233,
Li0.1500Cr0.0250Y0.0750Ti0.0000P0.1500O0.6000,Li3.0Cr0.5Y1.5Ti0.0P3O12,14.091233,
Li0.1500Cr0.0333Y0.0667Ti0.0000P0.1500O0.6000,Li3.0Cr0.6667Y1.3333Ti0.0P3O12,14.091233,
Li0.1500Cr0.0417Y0.0583Ti0.0000P0.1500O0.6000,Li3.0Cr0.8333Y1.1667Ti0.0P3O12,15.093506,
Li0.1500Cr0.0500Y0.0500Ti0.0000P0.1500O0.6000,Li3.0Cr1.0Y1.0Ti0.0P3O12,15.093506,
Li0.1500Cr0.0583Y0.0417Ti0.0000P0.1500O0.6000,Li3.0Cr1.1667Y0.8333Ti0.0P3O12,15.093506,
Li0.1500Cr0.0667Y0.0333Ti0.0000P0.1500O0.6000,Li3.0Cr1.3333Y0.6667Ti0.0P3O12,17.623127,
Li0.1500Cr0.0750Y0.0250Ti0.0000P0.1500O0.6000,Li3.0Cr1.5Y0.5Ti0.0P3O12,17.623127,
Li0.1500Cr0.0833Y0.0167Ti0.0000P0.1500O0.6000,Li3.0Cr1.6667Y0.3333Ti0.0P3O12,18.036186,
Li0.1500Cr0.0917Y0.0083Ti0.0000P0.1500O0.6000,Li3.0Cr1.8333Y0.1667Ti0.0P3O12,17.903326,
Li0.1500Cr0.1000Y0.0000Ti0.0000P0.1500O0.6000,Li3.0Cr2.0Y0.0Ti0.0P3O12,17.903326,
Li0.0556Cr0.0000Hf0.0000Ti0.1111P0.1667O0.6667,Li1.0Cr0.0Hf0.0Ti2.0P3O12,7.7087817,
Li0.0642Cr0.0000Hf0.0092Ti0.1009P0.1651O0.6605,Li1.1667Cr0.0Hf0.1667Ti1.8333P3O12,7.7087817,
Li0.0642Cr0.0092Hf0.0000Ti0.1009P0.1651O0.6605,Li1.1667Cr0.1667Hf0.0Ti1.8333P3O12,7.7087817,
Li0.0727Cr0.0000Hf0.0182Ti0.0909P0.1636O0.6545,Li1.3333Cr0.0Hf0.3333Ti1.6667P3O12,7.7087817,
Li0.0727Cr0.0182Hf0.0000Ti0.0909P0.1636O0.6545,Li1.3333Cr0.3333Hf0.0Ti1.6667P3O12,7.7087817,
Li0.0811Cr0.0000Hf0.0270Ti0.0811P0.1622O0.6486,Li1.5Cr0.0Hf0.5Ti1.5P3O12,7.750805,
Li0.0811Cr0.0090Hf0.0180Ti0.0811P0.1622O0.6486,Li1.5Cr0.1667Hf0.3333Ti1.5P3O12,7.750805,0.0202476020251746
Li0.0811Cr0.0180Hf0.0090Ti0.0811P0.1622O0.6486,Li1.5Cr0.3333Hf0.1667Ti1.5P3O12,7.750805,0.06125369094847482
Li0.0811Cr0.0270Hf0.0000Ti0.0811P0.1622O0.6486,Li1.5Cr0.5Hf0.0Ti1.5P3O12,7.750805,
Li0.0893Cr0.0000Hf0.0357Ti0.0714P0.1607O0.6429,Li1.6667Cr0.0Hf0.6667Ti1.3333P3O12,8.1233835,
Li0.0893Cr0.0089Hf0.0268Ti0.0714P0.1607O0.6429,Li1.6667Cr0.1667Hf0.5Ti1.3333P3O12,8.129335,0.01740951016683629
Li0.0893Cr0.0268Hf0.0089Ti0.0714P0.1607O0.6429,Li1.6667Cr0.5Hf0.1667Ti1.3333P3O12,8.129335,0.09784563543305674
Li0.0893Cr0.0357Hf0.0000Ti0.0714P0.1607O0.6429,Li1.6667Cr0.6667Hf0.0Ti1.3333P3O12,8.129335,
Li0.0973Cr0.0000Hf0.0442Ti0.0619P0.1593O0.6372,Li1.8333Cr0.0Hf0.8333Ti1.1667P3O12,8.1233835,
Li0.0973Cr0.0177Hf0.0265Ti0.0619P0.1593O0.6372,Li1.8333Cr0.3333Hf0.5Ti1.1667P3O12,8.129335,0.040478905015336596
Li0.0973Cr0.0265Hf0.0177Ti0.0619P0.1593O0.6372,Li1.8333Cr0.5Hf0.3333Ti1.1667P3O12,8.129335,0.07709493258331648
Li0.0973Cr0.0442Hf0.0000Ti0.0619P0.1593O0.6372,Li1.8333Cr0.8333Hf0.0Ti1.1667P3O12,7.845156,
Li0.1053Cr0.0000Hf0.0526Ti0.0526P0.1579O0.6316,Li2.0Cr0.0Hf1.0Ti1.0P3O12,8.1233835,
Li0.1053Cr0.0088Hf0.0439Ti0.0526P0.1579O0.6316,Li2.0Cr0.1667Hf0.8333Ti1.0P3O12,8.1233835,0.01533026760638609
Li0.1053Cr0.0175Hf0.0351Ti0.0526P0.1579O0.6316,Li2.0Cr0.3333Hf0.6667Ti1.0P3O12,8.1233835,0.037542810991859264
Li0.1053Cr0.0263Hf0.0263Ti0.0526P0.1579O0.6316,Li2.0Cr0.5Hf0.5Ti1.0P3O12,8.129335,0.07007327959874152
Li0.1053Cr0.0351Hf0.0175Ti0.0526P0.1579O0.6316,Li2.0Cr0.6667Hf0.3333Ti1.0P3O12,8.129335,0.10822444342301442
Li0.1053Cr0.0439Hf0.0088Ti0.0526P0.1579O0.6316,Li2.0Cr0.8333Hf0.1667Ti1.0P3O12,7.845156,0.17184701507923164
Li0.1053Cr0.0526Hf0.0000Ti0.0526P0.1579O0.6316,Li2.0Cr1.0Hf0.0Ti1.0P3O12,7.845156,
Li0.1130Cr0.0000Hf0.0609Ti0.0435P0.1565O0.6261,Li2.1667Cr0.0Hf1.1667Ti0.8333P3O12,7.980404,
Li0.1130Cr0.0087Hf0.0522Ti0.0435P0.1565O0.6261,Li2.1667Cr0.1667Hf1.0Ti0.8333P3O12,8.1233835,0.0010987654605201314
Li0.1130Cr0.0261Hf0.0348Ti0.0435P0.1565O0.6261,Li2.1667Cr0.5Hf0.6667Ti0.8333P3O12,8.1233835,0.01028653291293908
Li0.1130Cr0.0348Hf0.0261Ti0.0435P0.1565O0.6261,Li2.1667Cr0.6667Hf0.5Ti0.8333P3O12,8.129335,0.014822527986101546
Li0.1130Cr0.0522Hf0.0087Ti0.0435P0.1565O0.6261,Li2.1667Cr1.0Hf0.1667Ti0.8333P3O12,7.845156,0.0882382275899123
Li0.1130Cr0.0609Hf0.0000Ti0.0435P0.1565O0.6261,Li2.1667Cr1.1667Hf0.0Ti0.8333P3O12,13.286617,
Li0.1207Cr0.0000Hf0.0690Ti0.0345P0.1552O0.6207,Li2.3333Cr0.0Hf1.3333Ti0.6667P3O12,7.980404,
Li0.1207Cr0.0172Hf0.0517Ti0.0345P0.1552O0.6207,Li2.3333Cr0.3333Hf1.0Ti0.6667P3O12,8.1233835,0.002402112261091581
Li0.1207Cr0.0259Hf0.0431Ti0.0345P0.1552O0.6207,Li2.3333Cr0.5Hf0.8333Ti0.6667P3O12,8.1233835,0.009868914148909084
Li0.1207Cr0.0431Hf0.0259Ti0.0345P0.1552O0.6207,Li2.3333Cr0.8333Hf0.5Ti0.6667P3O12,7.845156,0.01832586082458436
Li0.1207Cr0.0517Hf0.0172Ti0.0345P0.1552O0.6207,Li2.3333Cr1.0Hf0.3333Ti0.6667P3O12,7.845156,0.11647505387467322
Li0.1207Cr0.0690Hf0.0000Ti0.0345P0.1552O0.6207,Li2.3333Cr1.3333Hf0.0Ti0.6667P3O12,13.286617,
Li0.1282Cr0.0000Hf0.0769Ti0.0256P0.1538O0.6154,Li2.5Cr0.0Hf1.5Ti0.5P3O12,7.980404,
Li0.1282Cr0.0085Hf0.0684Ti0.0256P0.1538O0.6154,Li2.5Cr0.1667Hf1.3333Ti0.5P3O12,7.980404,0.0015008168777090407
Li0.1282Cr0.0171Hf0.0598Ti0.0256P0.1538O0.6154,Li2.5Cr0.3333Hf1.1667Ti0.5P3O12,7.980404,0.002792317595536025
Li0.1282Cr0.0256Hf0.0513Ti0.0256P0.1538O0.6154,Li2.5Cr0.5Hf1.0Ti0.5P3O12,8.1233835,0.004203457705736876
Li0.1282Cr0.0342Hf0.0427Ti0.0256P0.1538O0.6154,Li2.5Cr0.6667Hf0.8333Ti0.5P3O12,8.1233835,0.013035038102947899
Li0.1282Cr0.0427Hf0.0342Ti0.0256P0.1538O0.6154,Li2.5Cr0.8333Hf0.6667Ti0.5P3O12,7.839204,0.016774420357799965
Li0.1282Cr0.0513Hf0.0256Ti0.0256P0.1538O0.6154,Li2.5Cr1.0Hf0.5Ti0.5P3O12,7.845156,0.13280574639431816
Li0.1282Cr0.0598Hf0.0171Ti0.0256P0.1538O0.6154,Li2.5Cr1.1667Hf0.3333Ti0.5P3O12,7.845156,0.12019599943794206
Li0.1282Cr0.0684Hf0.0085Ti0.0256P0.1538O0.6154,Li2.5Cr1.3333Hf0.1667Ti0.5P3O12,13.286617,0.09413788136558261
Li0.1282Cr0.0769Hf0.0000Ti0.0256P0.1538O0.6154,Li2.5Cr1.5Hf0.0Ti0.5P3O12,13.286617,
Li0.1356Cr0.0000Hf0.0847Ti0.0169P0.1525O0.6102,Li2.6667Cr0.0Hf1.6667Ti0.3333P3O12,7.980404,
Li0.1356Cr0.0085Hf0.0763Ti0.0169P0.1525O0.6102,Li2.6667Cr0.1667Hf1.5Ti0.3333P3O12,7.980404,0.0018638236406375505
Li0.1356Cr0.0254Hf0.0593Ti0.0169P0.1525O0.6102,Li2.6667Cr0.5Hf1.1667Ti0.3333P3O12,7.980404,0.005115420952564428
Li0.1356Cr0.0339Hf0.0508Ti0.0169P0.1525O0.6102,Li2.6667Cr0.6667Hf1.0Ti0.3333P3O12,8.1233835,0.006582355136584249
Li0.1356Cr0.0508Hf0.0339Ti0.0169P0.1525O0.6102,Li2.6667Cr1.0Hf0.6667Ti0.3333P3O12,7.839204,0.14533092776021622
Li0.1356Cr0.0593Hf0.0254Ti0.0169P0.1525O0.6102,Li2.6667Cr1.1667Hf0.5Ti0.3333P3O12,7.845156,0.13772206155031605
Li0.1356Cr0.0763Hf0.0085Ti0.0169P0.1525O0.6102,Li2.6667Cr1.5Hf0.1667Ti0.3333P3O12,13.286617,0.09610270988717297
Li0.1356Cr0.0847Hf0.0000Ti0.0169P0.1525O0.6102,Li2.6667Cr1.6667Hf0.0Ti0.3333P3O12,13.699678,
Li0.1429Cr0.0000Hf0.0924Ti0.0084P0.1513O0.6050,Li2.8333Cr0.0Hf1.8333Ti0.1667P3O12,9.871589,
Li0.1429Cr0.0168Hf0.0756Ti0.0084P0.1513O0.6050,Li2.8333Cr0.3333Hf1.5Ti0.1667P3O12,11.711937,0.004849953893897725
Li0.1429Cr0.0252Hf0.0672Ti0.0084P0.1513O0.6050,Li2.8333Cr0.5Hf1.3333Ti0.1667P3O12,11.711937,0.007138660264977547
Li0.1429Cr0.0420Hf0.0504Ti0.0084P0.1513O0.6050,Li2.8333Cr0.8333Hf1.0Ti0.1667P3O12,11.57074,0.01081693816322119
Li0.1429Cr0.0504Hf0.0420Ti0.0084P0.1513O0.6050,Li2.8333Cr1.0Hf0.8333Ti0.1667P3O12,11.57074,0.16040594530917587
Li0.1429Cr0.0672Hf0.0252Ti0.0084P0.1513O0.6050,Li2.8333Cr1.3333Hf0.5Ti0.1667P3O12,17.018145,0.14401783269672613
Li0.1429Cr0.0756Hf0.0168Ti0.0084P0.1513O0.6050,Li2.8333Cr1.5Hf0.3333Ti0.1667P3O12,17.018145,0.1289899537390322
Li0.1429Cr0.0924Hf0.0000Ti0.0084P0.1513O0.6050,Li2.8333Cr1.8333Hf0.0Ti0.1667P3O12,17.431204,
Li0.1500Cr0.0000Hf0.1000Ti0.0000P0.1500O0.6000,Li3.0Cr0.0Hf2.0Ti0.0P3O12,13.217646,
Li0.1500Cr0.0083Hf0.0917Ti0.0000P0.1500O0.6000,Li3.0Cr0.1667Hf1.8333Ti0.0P3O12,13.217646,
Li0.1500Cr0.0167Hf0.0833Ti0.0000P0.1500O0.6000,Li3.0Cr0.3333Hf1.6667Ti0.0P3O12,15.057993,
Li0.1500Cr0.0250Hf0.0750Ti0.0000P0.1500O0.6000,Li3.0Cr0.5Hf1.5Ti0.0P3O12,15.057993,
Li0.1500Cr0.0333Hf0.0667Ti0.0000P0.1500O0.6000,Li3.0Cr0.6667Hf1.3333Ti0.0P3O12,15.057993,
Li0.1500Cr0.0417Hf0.0583Ti0.0000P0.1500O0.6000,Li3.0Cr0.8333Hf1.1667Ti0.0P3O12,14.916796,
Li0.1500Cr0.0500Hf0.0500Ti0.0000P0.1500O0.6000,Li3.0Cr1.0Hf1.0Ti0.0P3O12,14.916796,
Li0.1500Cr0.0583Hf0.0417Ti0.0000P0.1500O0.6000,Li3.0Cr1.1667Hf0.8333Ti0.0P3O12,14.916796,
Li0.1500Cr0.0667Hf0.0333Ti0.0000P0.1500O0.6000,Li3.0Cr1.3333Hf0.6667Ti0.0P3O12,17.484314,
Li0.1500Cr0.0750Hf0.0250Ti0.0000P0.1500O0.6000,Li3.0Cr1.5Hf0.5Ti0.0P3O12,17.490267,
Li0.1500Cr0.0833Hf0.0167Ti0.0000P0.1500O0.6000,Li3.0Cr1.6667Hf0.3333Ti0.0P3O12,17.903326,
Li0.1500Cr0.0917Hf0.0083Ti0.0000P0.1500O0.6000,Li3.0Cr1.8333Hf0.1667Ti0.0P3O12,17.903326,
Li0.1500Cr0.1000Hf0.0000Ti0.0000P0.1500O0.6000,Li3.0Cr2.0Hf0.0Ti0.0P3O12,17.903326,
Li0.0556Cr0.0000Bi0.0000Ti0.1111P0.1667O0.6667,Li1.0Cr0.0Bi0.0Ti2.0P3O12,7.7087817,
Li0.0642Cr0.0000Bi0.0092Ti0.1009P0.1651O0.6605,Li1.1667Cr0.0Bi0.1667Ti1.8333P3O12,7.7087817,
Li0.0642Cr0.0092Bi0.0000Ti0.1009P0.1651O0.6605,Li1.1667Cr0.1667Bi0.0Ti1.8333P3O12,7.7087817,
Li0.0727Cr0.0000Bi0.0182Ti0.0909P0.1636O0.6545,Li1.3333Cr0.0Bi0.3333Ti1.6667P3O12,7.7087817,
Li0.0727Cr0.0182Bi0.0000Ti0.0909P0.1636O0.6545,Li1.3333Cr0.3333Bi0.0Ti1.6667P3O12,7.7087817,
Li0.0811Cr0.0000Bi0.0270Ti0.0811P0.1622O0.6486,Li1.5Cr0.0Bi0.5Ti1.5P3O12,7.750805,
Li0.0811Cr0.0090Bi0.0180Ti0.0811P0.1622O0.6486,Li1.5Cr0.1667Bi0.3333Ti1.5P3O12,7.750805,0.0007691889878456385
Li0.0811Cr0.0180Bi0.0090Ti0.0811P0.1622O0.6486,Li1.5Cr0.3333Bi0.1667Ti1.5P3O12,7.750805,0.001615384067020749
Li0.0811Cr0.0270Bi0.0000Ti0.0811P0.1622O0.6486,Li1.5Cr0.5Bi0.0Ti1.5P3O12,7.750805,
Li0.0893Cr0.0000Bi0.0357Ti0.0714P0.1607O0.6429,Li1.6667Cr0.0Bi0.6667Ti1.3333P3O12,8.129335,
Li0.0893Cr0.0089Bi0.0268Ti0.0714P0.1607O0.6429,Li1.6667Cr0.1667Bi0.5Ti1.3333P3O12,8.129335,0.000696897990119851
Li0.0893Cr0.0268Bi0.0089Ti0.0714P0.1607O0.6429,Li1.6667Cr0.5Bi0.1667Ti1.3333P3O12,8.129335,0.0022215633751916605
Li0.0893Cr0.0357Bi0.0000Ti0.0714P0.1607O0.6429,Li1.6667Cr0.6667Bi0.0Ti1.3333P3O12,8.129335,
Li0.0973Cr0.0000Bi0.0442Ti0.0619P0.1593O0.6372,Li1.8333Cr0.0Bi0.8333Ti1.1667P3O12,8.129335,
Li0.0973Cr0.0177Bi0.0265Ti0.0619P0.1593O0.6372,Li1.8333Cr0.3333Bi0.5Ti1.1667P3O12,8.129335,0.0011784366178956476
Li0.0973Cr0.0265Bi0.0177Ti0.0619P0.1593O0.6372,Li1.8333Cr0.5Bi0.3333Ti1.1667P3O12,8.129335,0.0018221489620949846
Li0.0973Cr0.0442Bi0.0000Ti0.0619P0.1593O0.6372,Li1.8333Cr0.8333Bi0.0Ti1.1667P3O12,7.845156,
Li0.1053Cr0.0000Bi0.0526Ti0.0526P0.1579O0.6316,Li2.0Cr0.0Bi1.0Ti1.0P3O12,8.129335,
Li0.1053Cr0.0088Bi0.0439Ti0.0526P0.1579O0.6316,Li2.0Cr0.1667Bi0.8333Ti1.0P3O12,8.129335,0.0006087595158945363
Li0.1053Cr0.0175Bi0.0351Ti0.0526P0.1579O0.6316,Li2.0Cr0.3333Bi0.6667Ti1.0P3O12,8.129335,0.0010791244137934894
Li0.1053Cr0.0263Bi0.0263Ti0.0526P0.1579O0.6316,Li2.0Cr0.5Bi0.5Ti1.0P3O12,8.129335,0.0016328917018030862
Li0.1053Cr0.0351Bi0.0175Ti0.0526P0.1579O0.6316,Li2.0Cr0.6667Bi0.3333Ti1.0P3O12,8.129335,0.002194999769640149
Li0.1053Cr0.0439Bi0.0088Ti0.0526P0.1579O0.6316,Li2.0Cr0.8333Bi0.1667Ti1.0P3O12,7.845156,0.003001371242153395
Li0.1053Cr0.0526Bi0.0000Ti0.0526P0.1579O0.6316,Li2.0Cr1.0Bi0.0Ti1.0P3O12,7.845156,
Li0.1130Cr0.0000Bi0.0609Ti0.0435P0.1565O0.6261,Li2.1667Cr0.0Bi1.1667Ti0.8333P3O12,8.129335,
Li0.1130Cr0.0087Bi0.0522Ti0.0435P0.1565O0.6261,Li2.1667Cr0.1667Bi1.0Ti0.8333P3O12,8.129335,0.004320170708557074
Li0.1130Cr0.0261Bi0.0348Ti0.0435P0.1565O0.6261,Li2.1667Cr0.5Bi0.6667Ti0.8333P3O12,8.129335,0.00015567462455710695
Li0.1130Cr0.0348Bi0.0261Ti0.0435P0.1565O0.6261,Li2.1667Cr0.6667Bi0.5Ti0.8333P3O12,8.129335,0.00017572130058672654
Li0.1130Cr0.0522Bi0.0087Ti0.0435P0.1565O0.6261,Li2.1667Cr1.0Bi0.1667Ti0.8333P3O12,7.845156,0.08045797113406919
Li0.1130Cr0.0609Bi0.0000Ti0.0435P0.1565O0.6261,Li2.1667Cr1.1667Bi0.0Ti0.8333P3O12,13.286617,
Li0.1207Cr0.0000Bi0.0690Ti0.0345P0.1552O0.6207,Li2.3333Cr0.0Bi1.3333Ti0.6667P3O12,8.129335,
Li0.1207Cr0.0172Bi0.0517Ti0.0345P0.1552O0.6207,Li2.3333Cr0.3333Bi1.0Ti0.6667P3O12,8.129335,0.007820546704738416
Li0.1207Cr0.0259Bi0.0431Ti0.0345P0.1552O0.6207,Li2.3333Cr0.5Bi0.8333Ti0.6667P3O12,8.129335,0.00014959077872781857
Li0.1207Cr0.0431Bi0.0259Ti0.0345P0.1552O0.6207,Li2.3333Cr0.8333Bi0.5Ti0.6667P3O12,7.845156,0.00018386686828163686
Li0.1207Cr0.0517Bi0.0172Ti0.0345P0.1552O0.6207,Li2.3333Cr1.0Bi0.3333Ti0.6667P3O12,7.845156,0.10799647863898335
Li0.1207Cr0.0690Bi0.0000Ti0.0345P0.1552O0.6207,Li2.3333Cr1.3333Bi0.0Ti0.6667P3O12,13.286617,
Li0.1282Cr0.0000Bi0.0769Ti0.0256P0.1538O0.6154,Li2.5Cr0.0Bi1.5Ti0.5P3O12,8.129335,
Li0.1282Cr0.0085Bi0.0684Ti0.0256P0.1538O0.6154,Li2.5Cr0.1667Bi1.3333Ti0.5P3O12,8.129335,0.005522746066393562
Li0.1282Cr0.0171Bi0.0598Ti0.0256P0.1538O0.6154,Li2.5Cr0.3333Bi1.1667Ti0.5P3O12,8.129335,0.008874793650874704
Li0.1282Cr0.0256Bi0.0513Ti0.0256P0.1538O0.6154,Li2.5Cr0.5Bi1.0Ti0.5P3O12,8.129335,0.01242150976177747
Li0.1282Cr0.0342Bi0.0427Ti0.0256P0.1538O0.6154,Li2.5Cr0.6667Bi0.8333Ti0.5P3O12,8.129335,0.00016084887843294672
Li0.1282Cr0.0427Bi0.0342Ti0.0256P0.1538O0.6154,Li2.5Cr0.8333Bi0.6667Ti0.5P3O12,7.845156,0.000173791058355465
Li0.1282Cr0.0513Bi0.0256Ti0.0256P0.1538O0.6154,Li2.5Cr1.0Bi0.5Ti0.5P3O12,7.845156,0.13245741431984928
Li0.1282Cr0.0598Bi0.0171Ti0.0256P0.1538O0.6154,Li2.5Cr1.1667Bi0.3333Ti0.5P3O12,7.845156,0.1139807105457631
Li0.1282Cr0.0684Bi0.0085Ti0.0256P0.1538O0.6154,Li2.5Cr1.3333Bi0.1667Ti0.5P3O12,13.286617,0.08918907525013602
Li0.1282Cr0.0769Bi0.0000Ti0.0256P0.1538O0.6154,Li2.5Cr1.5Bi0.0Ti0.5P3O12,13.286617,
Li0.1356Cr0.0000Bi0.0847Ti0.0169P0.1525O0.6102,Li2.6667Cr0.0Bi1.6667Ti0.3333P3O12,8.129335,
Li0.1356Cr0.0085Bi0.0763Ti0.0169P0.1525O0.6102,Li2.6667Cr0.1667Bi1.5Ti0.3333P3O12,8.129335,0.006528546097868597
Li0.1356Cr0.0254Bi0.0593Ti0.0169P0.1525O0.6102,Li2.6667Cr0.5Bi1.1667Ti0.3333P3O12,8.129335,0.014895650163612564
Li0.1356Cr0.0339Bi0.0508Ti0.0169P0.1525O0.6102,Li2.6667Cr0.6667Bi1.0Ti0.3333P3O12,8.129335,0.01825930091944214
Li0.1356Cr0.0508Bi0.0339Ti0.0169P0.1525O0.6102,Li2.6667Cr1.0Bi0.6667Ti0.3333P3O12,7.845156,0.15799538444626057
Li0.1356Cr0.0593Bi0.0254Ti0.0169P0.1525O0.6102,Li2.6667Cr1.1667Bi0.5Ti0.3333P3O12,7.845156,0.14024520383656622
Li0.1356Cr0.0763Bi0.0085Ti0.0169P0.1525O0.6102,Li2.6667Cr1.5Bi0.1667Ti0.3333P3O12,13.286617,0.09437777360203818
Li0.1356Cr0.0847Bi0.0000Ti0.0169P0.1525O0.6102,Li2.6667Cr1.6667Bi0.0Ti0.3333P3O12,13.699678,
Li0.1429Cr0.0000Bi0.0924Ti0.0084P0.1513O0.6050,Li2.8333Cr0.0Bi1.8333Ti0.1667P3O12,11.860868,
Li0.1429Cr0.0168Bi0.0756Ti0.0084P0.1513O0.6050,Li2.8333Cr0.3333Bi1.5Ti0.1667P3O12,11.860868,0.01413758945753287
Li0.1429Cr0.0252Bi0.0672Ti0.0084P0.1513O0.6050,Li2.8333Cr0.5Bi1.3333Ti0.1667P3O12,11.860868,0.019273676310442675
Li0.1429Cr0.0420Bi0.0504Ti0.0084P0.1513O0.6050,Li2.8333Cr0.8333Bi1.0Ti0.1667P3O12,11.576692,0.02701419235873272
Li0.1429Cr0.0504Bi0.0420Ti0.0084P0.1513O0.6050,Li2.8333Cr1.0Bi0.8333Ti0.1667P3O12,11.576692,0.19167852643459796
Li0.1429Cr0.0672Bi0.0252Ti0.0084P0.1513O0.6050,Li2.8333Cr1.3333Bi0.5Ti0.1667P3O12,17.018145,0.15871449733861995
Li0.1429Cr0.0756Bi0.0168Ti0.0084P0.1513O0.6050,Li2.8333Cr1.5Bi0.3333Ti0.1667P3O12,17.018145,0.1348986936458636
Li0.1429Cr0.0924Bi0.0000Ti0.0084P0.1513O0.6050,Li2.8333Cr1.8333Bi0.0Ti0.1667P3O12,17.431204,
Li0.1500Cr0.0000Bi0.1000Ti0.0000P0.1500O0.6000,Li3.0Cr0.0Bi2.0Ti0.0P3O12,14.981435,
Li0.1500Cr0.0083Bi0.0917Ti0.0000P0.1500O0.6000,Li3.0Cr0.1667Bi1.8333Ti0.0P3O12,15.206924,
Li0.1500Cr0.0167Bi0.0833Ti0.0000P0.1500O0.6000,Li3.0Cr0.3333Bi1.6667Ti0.0P3O12,15.206924,
Li0.1500Cr0.0250Bi0.0750Ti0.0000P0.1500O0.6000,Li3.0Cr0.5Bi1.5Ti0.0P3O12,15.206924,
Li0.1500Cr0.0333Bi0.0667Ti0.0000P0.1500O0.6000,Li3.0Cr0.6667Bi1.3333Ti0.0P3O12,15.206924,
Li0.1500Cr0.0417Bi0.0583Ti0.0000P0.1500O0.6000,Li3.0Cr0.8333Bi1.1667Ti0.0P3O12,14.922748,
Li0.1500Cr0.0500Bi0.0500Ti0.0000P0.1500O0.6000,Li3.0Cr1.0Bi1.0Ti0.0P3O12,14.922748,
Li0.1500Cr0.0583Bi0.0417Ti0.0000P0.1500O0.6000,Li3.0Cr1.1667Bi0.8333Ti0.0P3O12,14.922748,
Li0.1500Cr0.0667Bi0.0333Ti0.0000P0.1500O0.6000,Li3.0Cr1.3333Bi0.6667Ti0.0P3O12,17.490267,
Li0.1500Cr0.0750Bi0.0250Ti0.0000P0.1500O0.6000,Li3.0Cr1.5Bi0.5Ti0.0P3O12,17.490267,
Li0.1500Cr0.0833Bi0.0167Ti0.0000P0.1500O0.6000,Li3.0Cr1.6667Bi0.3333Ti0.0P3O12,17.903326,
Li0.1500Cr0.0917Bi0.0083Ti0.0000P0.1500O0.6000,Li3.0Cr1.8333Bi0.1667Ti0.0P3O12,17.903326,
Li0.1500Cr0.1000Bi0.0000Ti0.0000P0.1500O0.6000,Li3.0Cr2.0Bi0.0Ti0.0P3O12,17.903326,
Li0.0556Fe0.0000Al0.0000Ti0.1111P0.1667O0.6667,Li1.0Fe0.0Al0.0Ti2.0P3O12,7.7087817,
Li0.0642Fe0.0000Al0.0092Ti0.1009P0.1651O0.6605,Li1.1667Fe0.0Al0.1667Ti1.8333P3O12,7.7087817,
Li0.0642Fe0.0092Al0.0000Ti0.1009P0.1651O0.6605,Li1.1667Fe0.1667Al0.0Ti1.8333P3O12,7.7087817,
Li0.0727Fe0.0000Al0.0182Ti0.0909P0.1636O0.6545,Li1.3333Fe0.0Al0.3333Ti1.6667P3O12,9.113234,
Li0.0727Fe0.0182Al0.0000Ti0.0909P0.1636O0.6545,Li1.3333Fe0.3333Al0.0Ti1.6667P3O12,7.7087817,
Li0.0811Fe0.0000Al0.0270Ti0.0811P0.1622O0.6486,Li1.5Fe0.0Al0.5Ti1.5P3O12,9.155256,
Li0.0811Fe0.0090Al0.0180Ti0.0811P0.1622O0.6486,Li1.5Fe0.1667Al0.3333Ti1.5P3O12,9.155256,0.6377459128370915
Li0.0811Fe0.0180Al0.0090Ti0.0811P0.1622O0.6486,Li1.5Fe0.3333Al0.1667Ti1.5P3O12,7.750805,1.0652844361324578
Li0.0811Fe0.0270Al0.0000Ti0.0811P0.1622O0.6486,Li1.5Fe0.5Al0.0Ti1.5P3O12,6.671572,
Li0.0893Fe0.0000Al0.0357Ti0.0714P0.1607O0.6429,Li1.6667Fe0.0Al0.6667Ti1.3333P3O12,9.533785,
Li0.0893Fe0.0089Al0.0268Ti0.0714P0.1607O0.6429,Li1.6667Fe0.1667Al0.5Ti1.3333P3O12,9.533785,0.5919051013954807
Li0.0893Fe0.0268Al0.0089Ti0.0714P0.1607O0.6429,Li1.6667Fe0.5Al0.1667Ti1.3333P3O12,7.0501,1.260926836558685
Li0.0893Fe0.0357Al0.0000Ti0.0714P0.1607O0.6429,Li1.6667Fe0.6667Al0.0Ti1.3333P3O12,7.0501,
Li0.0973Fe0.0000Al0.0442Ti0.0619P0.1593O0.6372,Li1.8333Fe0.0Al0.8333Ti1.1667P3O12,9.533785,
Li0.0973Fe0.0177Al0.0265Ti0.0619P0.1593O0.6372,Li1.8333Fe0.3333Al0.5Ti1.1667P3O12,9.533785,0.8538066420413414
Li0.0973Fe0.0265Al0.0177Ti0.0619P0.1593O0.6372,Li1.8333Fe0.5Al0.3333Ti1.1667P3O12,8.454553,1.088468542136416
Li0.0973Fe0.0442Al0.0000Ti0.0619P0.1593O0.6372,Li1.8333Fe0.8333Al0.0Ti1.1667P3O12,6.972733,
Li0.1053Fe0.0000Al0.0526Ti0.0526P0.1579O0.6316,Li2.0Fe0.0Al1.0Ti1.0P3O12,9.533785,
Li0.1053Fe0.0088Al0.0439Ti0.0526P0.1579O0.6316,Li2.0Fe0.1667Al0.8333Ti1.0P3O12,9.533785,0.5549469770306023
Li0.1053Fe0.0175Al0.0351Ti0.0526P0.1579O0.6316,Li2.0Fe0.3333Al0.6667Ti1.0P3O12,9.533785,0.8323728152531127
Li0.1053Fe0.0263Al0.0263Ti0.0526P0.1579O0.6316,Li2.0Fe0.5Al0.5Ti1.0P3O12,8.454553,1.0266296738131444
Li0.1053Fe0.0351Al0.0175Ti0.0526P0.1579O0.6316,Li2.0Fe0.6667Al0.3333Ti1.0P3O12,7.0501,1.2579171900238424
Li0.1053Fe0.0439Al0.0088Ti0.0526P0.1579O0.6316,Li2.0Fe0.8333Al0.1667Ti1.0P3O12,6.972733,1.6289343142116894
Li0.1053Fe0.0526Al0.0000Ti0.0526P0.1579O0.6316,Li2.0Fe1.0Al0.0Ti1.0P3O12,7.040515,
Li0.1130Fe0.0000Al0.0609Ti0.0435P0.1565O0.6261,Li2.1667Fe0.0Al1.1667Ti0.8333P3O12,9.286814,
Li0.1130Fe0.0087Al0.0522Ti0.0435P0.1565O0.6261,Li2.1667Fe0.1667Al1.0Ti0.8333P3O12,9.533785,0.35580345831885224
Li0.1130Fe0.0261Al0.0348Ti0.0435P0.1565O0.6261,Li2.1667Fe0.5Al0.6667Ti0.8333P3O12,8.454553,0.27351217998019206
Li0.1130Fe0.0348Al0.0261Ti0.0435P0.1565O0.6261,Li2.1667Fe0.6667Al0.5Ti0.8333P3O12,8.454553,0.30724524474072024
Li0.1130Fe0.0522Al0.0087Ti0.0435P0.1565O0.6261,Li2.1667Fe1.0Al0.1667Ti0.8333P3O12,6.972733,0.26319266462446145
Li0.1130Fe0.0609Al0.0000Ti0.0435P0.1565O0.6261,Li2.1667Fe1.1667Al0.0Ti0.8333P3O12,7.040515,
Li0.1207Fe0.0000Al0.0690Ti0.0345P0.1552O0.6207,Li2.3333Fe0.0Al1.3333Ti0.6667P3O12,9.286814,
Li0.1207Fe0.0172Al0.0517Ti0.0345P0.1552O0.6207,Li2.3333Fe0.3333Al1.0Ti0.6667P3O12,9.533785,0.5725569608981138