formula,original_formula,thermal_expansion,li ion conductivity
Li0.1282In0.0342Sb0.0427Ti0.0256P0.1538O0.6154,Li2.5In0.6667Sb0.8333Ti0.5P3O12,9.6167345,5.511491094314563e-08
Li0.1282In0.0427Sb0.0342Ti0.0256P0.1538O0.6154,Li2.5In0.8333Sb0.6667Ti0.5P3O12,9.6167345,5.7785374203016e-08
Li0.1282In0.0513Sb0.0256Ti0.0256P0.1538O0.6154,Li2.5In1.0Sb0.5Ti0.5P3O12,9.6167345,0.0060537619173304125
Li0.1282In0.0598Sb0.0171Ti0.0256P0.1538O0.6154,Li2.5In1.1667Sb0.3333Ti0.5P3O12,9.634011,0.004767276482964434
Li0.1282In0.0684Sb0.0085Ti0.0256P0.1538O0.6154,Li2.5In1.3333Sb0.1667Ti0.5P3O12,8.690509,0.003023611371426074
Li0.1282In0.0769Sb0.0000Ti0.0256P0.1538O0.6154,Li2.5In1.5Sb0.0Ti0.5P3O12,5.7995377,
Li0.1356In0.0000Sb0.0847Ti0.0169P0.1525O0.6102,Li2.6667In0.0Sb1.6667Ti0.3333P3O12,9.055562,
Li0.1356In0.0085Sb0.0763Ti0.0169P0.1525O0.6102,Li2.6667In0.1667Sb1.5Ti0.3333P3O12,9.055562,0.02559164607785307
Li0.1356In0.0254Sb0.0593Ti0.0169P0.1525O0.6102,Li2.6667In0.5Sb1.1667Ti0.3333P3O12,9.6167345,0.033463063458225
Li0.1356In0.0339Sb0.0508Ti0.0169P0.1525O0.6102,Li2.6667In0.6667Sb1.0Ti0.3333P3O12,9.6167345,0.03515623736144297
Li0.1356In0.0508Sb0.0339Ti0.0169P0.1525O0.6102,Li2.6667In1.0Sb0.6667Ti0.3333P3O12,9.6167345,0.007541183332844843
Li0.1356In0.0593Sb0.0254Ti0.0169P0.1525O0.6102,Li2.6667In1.1667Sb0.5Ti0.3333P3O12,9.6167345,0.00646618259122623
Li0.1356In0.0763Sb0.0085Ti0.0169P0.1525O0.6102,Li2.6667In1.5Sb0.1667Ti0.3333P3O12,8.690509,0.0033145447664367457
Li0.1356In0.0847Sb0.0000Ti0.0169P0.1525O0.6102,Li2.6667In1.6667Sb0.0Ti0.3333P3O12,5.7995377,
Li0.1429In0.0000Sb0.0924Ti0.0084P0.1513O0.6050,Li2.8333In0.0Sb1.8333Ti0.1667P3O12,12.787092,
Li0.1429In0.0168Sb0.0756Ti0.0084P0.1513O0.6050,Li2.8333In0.3333Sb1.5Ti0.1667P3O12,13.061014,0.037001325151137646
Li0.1429In0.0252Sb0.0672Ti0.0084P0.1513O0.6050,Li2.8333In0.5Sb1.3333Ti0.1667P3O12,13.348263,0.040490773292449836
Li0.1429In0.0420Sb0.0504Ti0.0084P0.1513O0.6050,Li2.8333In0.8333Sb1.0Ti0.1667P3O12,13.348263,0.04381314450855099
Li0.1429In0.0504Sb0.0420Ti0.0084P0.1513O0.6050,Li2.8333In1.0Sb0.8333Ti0.1667P3O12,13.348263,0.009565173742698404
Li0.1429In0.0672Sb0.0252Ti0.0084P0.1513O0.6050,Li2.8333In1.3333Sb0.5Ti0.1667P3O12,13.348263,0.007261156262172469
Li0.1429In0.0756Sb0.0168Ti0.0084P0.1513O0.6050,Li2.8333In1.5Sb0.3333Ti0.1667P3O12,13.36554,0.005781824885112807
Li0.1429In0.0924Sb0.0000Ti0.0084P0.1513O0.6050,Li2.8333In1.8333Sb0.0Ti0.1667P3O12,9.531069,
Li0.1500In0.0000Sb0.1000Ti0.0000P0.1500O0.6000,Li3.0In0.0Sb2.0Ti0.0P3O12,16.133144,
Li0.1500In0.0083Sb0.0917Ti0.0000P0.1500O0.6000,Li3.0In0.1667Sb1.8333Ti0.0P3O12,16.133144,
Li0.1500In0.0167Sb0.0833Ti0.0000P0.1500O0.6000,Li3.0In0.3333Sb1.6667Ti0.0P3O12,16.407066,
Li0.1500In0.0250Sb0.0750Ti0.0000P0.1500O0.6000,Li3.0In0.5Sb1.5Ti0.0P3O12,16.694317,
Li0.1500In0.0333Sb0.0667Ti0.0000P0.1500O0.6000,Li3.0In0.6667Sb1.3333Ti0.0P3O12,16.694317,
Li0.1500In0.0417Sb0.0583Ti0.0000P0.1500O0.6000,Li3.0In0.8333Sb1.1667Ti0.0P3O12,16.694317,
Li0.1500In0.0500Sb0.0500Ti0.0000P0.1500O0.6000,Li3.0In1.0Sb1.0Ti0.0P3O12,16.694317,
Li0.1500In0.0583Sb0.0417Ti0.0000P0.1500O0.6000,Li3.0In1.1667Sb0.8333Ti0.0P3O12,16.694317,
Li0.1500In0.0667Sb0.0333Ti0.0000P0.1500O0.6000,Li3.0In1.3333Sb0.6667Ti0.0P3O12,16.694317,
Li0.1500In0.0750Sb0.0250Ti0.0000P0.1500O0.6000,Li3.0In1.5Sb0.5Ti0.0P3O12,16.694317,
Li0.1500In0.0833Sb0.0167Ti0.0000P0.1500O0.6000,Li3.0In1.6667Sb0.3333Ti0.0P3O12,13.408966,
Li0.1500In0.0917Sb0.0083Ti0.0000P0.1500O0.6000,Li3.0In1.8333Sb0.1667Ti0.0P3O12,12.877124,
Li0.1500In0.1000Sb0.0000Ti0.0000P0.1500O0.6000,Li3.0In2.0Sb0.0Ti0.0P3O12,12.877124,
Li0.0556In0.0000Sc0.0000Ti0.1111P0.1667O0.6667,Li1.0In0.0Sc0.0Ti2.0P3O12,7.7087817,
Li0.0642In0.0000Sc0.0092Ti0.1009P0.1651O0.6605,Li1.1667In0.0Sc0.1667Ti1.8333P3O12,8.985445,
Li0.0642In0.0092Sc0.0000Ti0.1009P0.1651O0.6605,Li1.1667In0.1667Sc0.0Ti1.8333P3O12,7.7087817,
Li0.0727In0.0000Sc0.0182Ti0.0909P0.1636O0.6545,Li1.3333In0.0Sc0.3333Ti1.6667P3O12,11.915219,
Li0.0727In0.0182Sc0.0000Ti0.0909P0.1636O0.6545,Li1.3333In0.3333Sc0.0Ti1.6667P3O12,8.017441,
Li0.0811In0.0000Sc0.0270Ti0.0811P0.1622O0.6486,Li1.5In0.0Sc0.5Ti1.5P3O12,6.105611,
Li0.0811In0.0090Sc0.0180Ti0.0811P0.1622O0.6486,Li1.5In0.1667Sc0.3333Ti1.5P3O12,11.957242,0.10751908454729141
Li0.0811In0.0180Sc0.0090Ti0.0811P0.1622O0.6486,Li1.5In0.3333Sc0.1667Ti1.5P3O12,8.708876,0.13453859376402424
Li0.0811In0.0270Sc0.0000Ti0.0811P0.1622O0.6486,Li1.5In0.5Sc0.0Ti1.5P3O12,8.31198,
Li0.0893In0.0000Sc0.0357Ti0.0714P0.1607O0.6429,Li1.6667In0.0Sc0.6667Ti1.3333P3O12,6.484139,
Li0.0893In0.0089Sc0.0268Ti0.0714P0.1607O0.6429,Li1.6667In0.1667Sc0.5Ti1.3333P3O12,6.484139,0.10384396544734634
Li0.0893In0.0268Sc0.0089Ti0.0714P0.1607O0.6429,Li1.6667In0.5Sc0.1667Ti1.3333P3O12,9.052247,0.15237861855612173
Li0.0893In0.0357Sc0.0000Ti0.0714P0.1607O0.6429,Li1.6667In0.6667Sc0.0Ti1.3333P3O12,8.690509,
Li0.0973In0.0000Sc0.0442Ti0.0619P0.1593O0.6372,Li1.8333In0.0Sc0.8333Ti1.1667P3O12,6.484139,
Li0.0973In0.0177Sc0.0265Ti0.0619P0.1593O0.6372,Li1.8333In0.3333Sc0.5Ti1.1667P3O12,6.165547,0.11707066006768706
Li0.0973In0.0265Sc0.0177Ti0.0619P0.1593O0.6372,Li1.8333In0.5Sc0.3333Ti1.1667P3O12,11.912564,0.1360449699332872
Li0.0973In0.0442Sc0.0000Ti0.0619P0.1593O0.6372,Li1.8333In0.8333Sc0.0Ti1.1667P3O12,8.690509,
Li0.1053In0.0000Sc0.0526Ti0.0526P0.1579O0.6316,Li2.0In0.0Sc1.0Ti1.0P3O12,6.484139,
Li0.1053In0.0088Sc0.0439Ti0.0526P0.1579O0.6316,Li2.0In0.1667Sc0.8333Ti1.0P3O12,6.484139,0.09971187250108414
Li0.1053In0.0175Sc0.0351Ti0.0526P0.1579O0.6316,Li2.0In0.3333Sc0.6667Ti1.0P3O12,6.154082,0.11502593813643544
Li0.1053In0.0263Sc0.0263Ti0.0526P0.1579O0.6316,Li2.0In0.5Sc0.5Ti1.0P3O12,6.060932,0.12860495388240975
Li0.1053In0.0351Sc0.0175Ti0.0526P0.1579O0.6316,Li2.0In0.6667Sc0.3333Ti1.0P3O12,11.912564,0.14641377627019236
Li0.1053In0.0439Sc0.0088Ti0.0526P0.1579O0.6316,Li2.0In0.8333Sc0.1667Ti1.0P3O12,9.052247,0.18217548776569764
Li0.1053In0.0526Sc0.0000Ti0.0526P0.1579O0.6316,Li2.0In1.0Sc0.0Ti1.0P3O12,8.690509,
Li0.1130In0.0000Sc0.0609Ti0.0435P0.1565O0.6261,Li2.1667In0.0Sc1.1667Ti0.8333P3O12,6.484139,
Li0.1130In0.0087Sc0.0522Ti0.0435P0.1565O0.6261,Li2.1667In0.1667Sc1.0Ti0.8333P3O12,6.484139,0.03942652303561615
Li0.1130In0.0261Sc0.0348Ti0.0435P0.1565O0.6261,Li2.1667In0.5Sc0.6667Ti0.8333P3O12,6.060932,0.007447086340099536
Li0.1130In0.0348Sc0.0261Ti0.0435P0.1565O0.6261,Li2.1667In0.6667Sc0.5Ti0.8333P3O12,6.060932,0.008844366236784442
Li0.1130In0.0522Sc0.0087Ti0.0435P0.1565O0.6261,Li2.1667In1.0Sc0.1667Ti0.8333P3O12,9.052247,0.07001037308311694
Li0.1130In0.0609Sc0.0000Ti0.0435P0.1565O0.6261,Li2.1667In1.1667Sc0.0Ti0.8333P3O12,8.690509,
Li0.1207In0.0000Sc0.0690Ti0.0345P0.1552O0.6207,Li2.3333In0.0Sc1.3333Ti0.6667P3O12,6.484139,
Li0.1207In0.0172Sc0.0517Ti0.0345P0.1552O0.6207,Li2.3333In0.3333Sc1.0Ti0.6667P3O12,6.154082,0.036424871555638345
Li0.1207In0.0259Sc0.0431Ti0.0345P0.1552O0.6207,Li2.3333In0.5Sc0.8333Ti0.6667P3O12,6.060932,0.005462752179828636
Li0.1207In0.0431Sc0.0259Ti0.0345P0.1552O0.6207,Li2.3333In0.8333Sc0.5Ti0.6667P3O12,6.060932,0.0075466003257098025
Li0.1207In0.0517Sc0.0172Ti0.0345P0.1552O0.6207,Li2.3333In1.0Sc0.3333Ti0.6667P3O12,11.912564,0.10025020768350079
Li0.1207In0.0690Sc0.0000Ti0.0345P0.1552O0.6207,Li2.3333In1.3333Sc0.0Ti0.6667P3O12,8.690509,
Li0.1282In0.0000Sc0.0769Ti0.0256P0.1538O0.6154,Li2.5In0.0Sc1.5Ti0.5P3O12,6.484139,
Li0.1282In0.0085Sc0.0684Ti0.0256P0.1538O0.6154,Li2.5In0.1667Sc1.3333Ti0.5P3O12,6.484139,0.03747156734835417
Li0.1282In0.0171Sc0.0598Ti0.0256P0.1538O0.6154,Li2.5In0.3333Sc1.1667Ti0.5P3O12,6.154082,0.03586866038152223
Li0.1282In0.0256Sc0.0513Ti0.0256P0.1538O0.6154,Li2.5In0.5Sc1.0Ti0.5P3O12,6.060932,0.03172275572321595
Li0.1282In0.0342Sc0.0427Ti0.0256P0.1538O0.6154,Li2.5In0.6667Sc0.8333Ti0.5P3O12,6.060932,0.00448833541033447
Li0.1282In0.0427Sc0.0342Ti0.0256P0.1538O0.6154,Li2.5In0.8333Sc0.6667Ti0.5P3O12,6.060932,0.005204707553173125
Li0.1282In0.0513Sc0.0256Ti0.0256P0.1538O0.6154,Li2.5In1.0Sc0.5Ti0.5P3O12,6.060932,0.12304373877022133
Li0.1282In0.0598Sc0.0171Ti0.0256P0.1538O0.6154,Li2.5In1.1667Sc0.3333Ti0.5P3O12,11.912564,0.10928627817657077
Li0.1282In0.0684Sc0.0085Ti0.0256P0.1538O0.6154,Li2.5In1.3333Sc0.1667Ti0.5P3O12,9.052247,0.07993652174432338
Li0.1282In0.0769Sc0.0000Ti0.0256P0.1538O0.6154,Li2.5In1.5Sc0.0Ti0.5P3O12,5.7995377,
Li0.1356In0.0000Sc0.0847Ti0.0169P0.1525O0.6102,Li2.6667In0.0Sc1.6667Ti0.3333P3O12,6.484139,
Li0.1356In0.0085Sc0.0763Ti0.0169P0.1525O0.6102,Li2.6667In0.1667Sc1.5Ti0.3333P3O12,6.484139,0.03811623545089989
Li0.1356In0.0254Sc0.0593Ti0.0169P0.1525O0.6102,Li2.6667In0.5Sc1.1667Ti0.3333P3O12,6.060932,0.03272274010114856
Li0.1356In0.0339Sc0.0508Ti0.0169P0.1525O0.6102,Li2.6667In0.6667Sc1.0Ti0.3333P3O12,6.060932,0.028917843630334776
Li0.1356In0.0508Sc0.0339Ti0.0169P0.1525O0.6102,Li2.6667In1.0Sc0.6667Ti0.3333P3O12,6.060932,0.15243333731321035
Li0.1356In0.0593Sc0.0254Ti0.0169P0.1525O0.6102,Li2.6667In1.1667Sc0.5Ti0.3333P3O12,6.060932,0.14263091457828567
Li0.1356In0.0763Sc0.0085Ti0.0169P0.1525O0.6102,Li2.6667In1.5Sc0.1667Ti0.3333P3O12,9.052247,0.09067390883349602
Li0.1356In0.0847Sc0.0000Ti0.0169P0.1525O0.6102,Li2.6667In1.6667Sc0.0Ti0.3333P3O12,5.7995377,
Li0.1429In0.0000Sc0.0924Ti0.0084P0.1513O0.6050,Li2.8333In0.0Sc1.8333Ti0.1667P3O12,10.380352,
Li0.1429In0.0168Sc0.0756Ti0.0084P0.1513O0.6050,Li2.8333In0.3333Sc1.5Ti0.1667P3O12,9.885621,0.040294660221272
Li0.1429In0.0252Sc0.0672Ti0.0084P0.1513O0.6050,Li2.8333In0.5Sc1.3333Ti0.1667P3O12,9.792472,0.03707370996162968
Li0.1429In0.0420Sc0.0504Ti0.0084P0.1513O0.6050,Li2.8333In0.8333Sc1.0Ti0.1667P3O12,9.792472,0.03047441349370059
Li0.1429In0.0504Sc0.0420Ti0.0084P0.1513O0.6050,Li2.8333In1.0Sc0.8333Ti0.1667P3O12,9.792472,0.20311528007832721
Li0.1429In0.0672Sc0.0252Ti0.0084P0.1513O0.6050,Li2.8333In1.3333Sc0.5Ti0.1667P3O12,9.792472,0.1761943366775973
Li0.1429In0.0756Sc0.0168Ti0.0084P0.1513O0.6050,Li2.8333In1.5Sc0.3333Ti0.1667P3O12,15.6440935,0.1533632830790554
Li0.1429In0.0924Sc0.0000Ti0.0084P0.1513O0.6050,Li2.8333In1.8333Sc0.0Ti0.1667P3O12,9.531069,
Li0.1500In0.0000Sc0.1000Ti0.0000P0.1500O0.6000,Li3.0In0.0Sc2.0Ti0.0P3O12,11.964293,
Li0.1500In0.0083Sc0.0917Ti0.0000P0.1500O0.6000,Li3.0In0.1667Sc1.8333Ti0.0P3O12,11.964293,
Li0.1500In0.0167Sc0.0833Ti0.0000P0.1500O0.6000,Li3.0In0.3333Sc1.6667Ti0.0P3O12,11.469562,
Li0.1500In0.0250Sc0.0750Ti0.0000P0.1500O0.6000,Li3.0In0.5Sc1.5Ti0.0P3O12,11.376412,
Li0.1500In0.0333Sc0.0667Ti0.0000P0.1500O0.6000,Li3.0In0.6667Sc1.3333Ti0.0P3O12,11.376412,
Li0.1500In0.0417Sc0.0583Ti0.0000P0.1500O0.6000,Li3.0In0.8333Sc1.1667Ti0.0P3O12,11.376412,
Li0.1500In0.0500Sc0.0500Ti0.0000P0.1500O0.6000,Li3.0In1.0Sc1.0Ti0.0P3O12,11.376412,
Li0.1500In0.0583Sc0.0417Ti0.0000P0.1500O0.6000,Li3.0In1.1667Sc0.8333Ti0.0P3O12,11.376412,
Li0.1500In0.0667Sc0.0333Ti0.0000P0.1500O0.6000,Li3.0In1.3333Sc0.6667Ti0.0P3O12,11.376412,
Li0.1500In0.0750Sc0.0250Ti0.0000P0.1500O0.6000,Li3.0In1.5Sc0.5Ti0.0P3O12,11.376412,
Li0.1500In0.0833Sc0.0167Ti0.0000P0.1500O0.6000,Li3.0In1.6667Sc0.3333Ti0.0P3O12,14.370631,
Li0.1500In0.0917Sc0.0083Ti0.0000P0.1500O0.6000,Li3.0In1.8333Sc0.1667Ti0.0P3O12,12.60289,
Li0.1500In0.1000Sc0.0000Ti0.0000P0.1500O0.6000,Li3.0In2.0Sc0.0Ti0.0P3O12,12.877124,
Li0.0556In0.0000Y0.0000Ti0.1111P0.1667O0.6667,Li1.0In0.0Y0.0Ti2.0P3O12,7.7087817,
Li0.0642In0.0000Y0.0092Ti0.1009P0.1651O0.6605,Li1.1667In0.0Y0.1667Ti1.8333P3O12,7.7087817,
Li0.0642In0.0092Y0.0000Ti0.1009P0.1651O0.6605,Li1.1667In0.1667Y0.0Ti1.8333P3O12,7.7087817,
Li0.0727In0.0000Y0.0182Ti0.0909P0.1636O0.6545,Li1.3333In0.0Y0.3333Ti1.6667P3O12,7.8326178,
Li0.0727In0.0182Y0.0000Ti0.0909P0.1636O0.6545,Li1.3333In0.3333Y0.0Ti1.6667P3O12,8.017441,
Li0.0811In0.0000Y0.0270Ti0.0811P0.1622O0.6486,Li1.5In0.0Y0.5Ti1.5P3O12,7.874641,
Li0.0811In0.0090Y0.0180Ti0.0811P0.1622O0.6486,Li1.5In0.1667Y0.3333Ti1.5P3O12,7.874641,0.13767557151873247
Li0.0811In0.0180Y0.0090Ti0.0811P0.1622O0.6486,Li1.5In0.3333Y0.1667Ti1.5P3O12,8.036197,0.17253291423460992
Li0.0811In0.0270Y0.0000Ti0.0811P0.1622O0.6486,Li1.5In0.5Y0.0Ti1.5P3O12,8.31198,
Li0.0893In0.0000Y0.0357Ti0.0714P0.1607O0.6429,Li1.6667In0.0Y0.6667Ti1.3333P3O12,8.253172,
Li0.0893In0.0089Y0.0268Ti0.0714P0.1607O0.6429,Li1.6667In0.1667Y0.5Ti1.3333P3O12,8.253172,0.13036104373996027
Li0.0893In0.0268Y0.0089Ti0.0714P0.1607O0.6429,Li1.6667In0.5Y0.1667Ti1.3333P3O12,8.690509,0.18536552903565556
Li0.0893In0.0357Y0.0000Ti0.0714P0.1607O0.6429,Li1.6667In0.6667Y0.0Ti1.3333P3O12,8.690509,
Li0.0973In0.0000Y0.0442Ti0.0619P0.1593O0.6372,Li1.8333In0.0Y0.8333Ti1.1667P3O12,8.253172,
Li0.0973In0.0177Y0.0265Ti0.0619P0.1593O0.6372,Li1.8333In0.3333Y0.5Ti1.1667P3O12,8.538561,0.15089751541132096
Li0.0973In0.0265Y0.0177Ti0.0619P0.1593O0.6372,Li1.8333In0.5Y0.3333Ti1.1667P3O12,8.814345,0.1662576222100509
Li0.0973In0.0442Y0.0000Ti0.0619P0.1593O0.6372,Li1.8333In0.8333Y0.0Ti1.1667P3O12,8.690509,
Li0.1053In0.0000Y0.0526Ti0.0526P0.1579O0.6316,Li2.0In0.0Y1.0Ti1.0P3O12,8.253172,
Li0.1053In0.0088Y0.0439Ti0.0526P0.1579O0.6316,Li2.0In0.1667Y0.8333Ti1.0P3O12,8.253172,0.12556913830588323
Li0.1053In0.0175Y0.0351Ti0.0526P0.1579O0.6316,Li2.0In0.3333Y0.6667Ti1.0P3O12,8.527096,0.14465823770075315
Li0.1053In0.0263Y0.0263Ti0.0526P0.1579O0.6316,Li2.0In0.5Y0.5Ti1.0P3O12,8.814345,0.1570984857654475
Li0.1053In0.0351Y0.0175Ti0.0526P0.1579O0.6316,Li2.0In0.6667Y0.3333Ti1.0P3O12,8.814345,0.16825191501852615
Li0.1053In0.0439Y0.0088Ti0.0526P0.1579O0.6316,Li2.0In0.8333Y0.1667Ti1.0P3O12,8.690509,0.19577171889980974
Li0.1053In0.0526Y0.0000Ti0.0526P0.1579O0.6316,Li2.0In1.0Y0.0Ti1.0P3O12,8.690509,
Li0.1130In0.0000Y0.0609Ti0.0435P0.1565O0.6261,Li2.1667In0.0Y1.1667Ti0.8333P3O12,7.013641,
Li0.1130In0.0087Y0.0522Ti0.0435P0.1565O0.6261,Li2.1667In0.1667Y1.0Ti0.8333P3O12,8.253172,0.04873558505530078
Li0.1130In0.0261Y0.0348Ti0.0435P0.1565O0.6261,Li2.1667In0.5Y0.6667Ti0.8333P3O12,8.814345,0.00015011992266077882
Li0.1130In0.0348Y0.0261Ti0.0435P0.1565O0.6261,Li2.1667In0.6667Y0.5Ti0.8333P3O12,8.814345,0.0001992539800124253
Li0.1130In0.0522Y0.0087Ti0.0435P0.1565O0.6261,Li2.1667In1.0Y0.1667Ti0.8333P3O12,8.690509,0.04151782882473085
Li0.1130In0.0609Y0.0000Ti0.0435P0.1565O0.6261,Li2.1667In1.1667Y0.0Ti0.8333P3O12,8.690509,
Li0.1207In0.0000Y0.0690Ti0.0345P0.1552O0.6207,Li2.3333In0.0Y1.3333Ti0.6667P3O12,7.013641,
Li0.1207In0.0172Y0.0517Ti0.0345P0.1552O0.6207,Li2.3333In0.3333Y1.0Ti0.6667P3O12,8.527096,0.0547860953483169
Li0.1207In0.0259Y0.0431Ti0.0345P0.1552O0.6207,Li2.3333In0.5Y0.8333Ti0.6667P3O12,8.814345,0.00010043220921347709
Li0.1207In0.0431Y0.0259Ti0.0345P0.1552O0.6207,Li2.3333In0.8333Y0.5Ti0.6667P3O12,8.814345,0.00015728652337698666
Li0.1207In0.0517Y0.0172Ti0.0345P0.1552O0.6207,Li2.3333In1.0Y0.3333Ti0.6667P3O12,8.814345,0.047186693042235585
Li0.1207In0.0690Y0.0000Ti0.0345P0.1552O0.6207,Li2.3333In1.3333Y0.0Ti0.6667P3O12,8.690509,
Li0.1282In0.0000Y0.0769Ti0.0256P0.1538O0.6154,Li2.5In0.0Y1.5Ti0.5P3O12,7.013641,
Li0.1282In0.0085Y0.0684Ti0.0256P0.1538O0.6154,Li2.5In0.1667Y1.3333Ti0.5P3O12,7.013641,0.051229188800225686
Li0.1282In0.0171Y0.0598Ti0.0256P0.1538O0.6154,Li2.5In0.3333Y1.1667Ti0.5P3O12,7.329956,0.05621444004611691
Li0.1282In0.0256Y0.0513Ti0.0256P0.1538O0.6154,Li2.5In0.5Y1.0Ti0.5P3O12,8.814345,0.059827685085899855
Li0.1282In0.0342Y0.0427Ti0.0256P0.1538O0.6154,Li2.5In0.6667Y0.8333Ti0.5P3O12,8.814345,7.833041635792229e-05
Li0.1282In0.0427Y0.0342Ti0.0256P0.1538O0.6154,Li2.5In0.8333Y0.6667Ti0.5P3O12,8.814345,9.431582739740005e-05
Li0.1282In0.0513Y0.0256Ti0.0256P0.1538O0.6154,Li2.5In1.0Y0.5Ti0.5P3O12,8.814345,0.05143405702119388
Li0.1282In0.0598Y0.0171Ti0.0256P0.1538O0.6154,Li2.5In1.1667Y0.3333Ti0.5P3O12,8.814345,0.048178441265113135
Li0.1282In0.0684Y0.0085Ti0.0256P0.1538O0.6154,Li2.5In1.3333Y0.1667Ti0.5P3O12,8.690509,0.042723678667571194
Li0.1282In0.0769Y0.0000Ti0.0256P0.1538O0.6154,Li2.5In1.5Y0.0Ti0.5P3O12,5.7995377,
Li0.1356In0.0000Y0.0847Ti0.0169P0.1525O0.6102,Li2.6667In0.0Y1.6667Ti0.3333P3O12,7.013641,
Li0.1356In0.0085Y0.0763Ti0.0169P0.1525O0.6102,Li2.6667In0.1667Y1.5Ti0.3333P3O12,7.013641,0.05336468054878553
Li0.1356In0.0254Y0.0593Ti0.0169P0.1525O0.6102,Li2.6667In0.5Y1.1667Ti0.3333P3O12,7.6172056,0.06220388646190785
Li0.1356In0.0339Y0.0508Ti0.0169P0.1525O0.6102,Li2.6667In0.6667Y1.0Ti0.3333P3O12,8.814345,0.06293400133388174
Li0.1356In0.0508Y0.0339Ti0.0169P0.1525O0.6102,Li2.6667In1.0Y0.6667Ti0.3333P3O12,8.814345,0.05620148008346803
Li0.1356In0.0593Y0.0254Ti0.0169P0.1525O0.6102,Li2.6667In1.1667Y0.5Ti0.3333P3O12,8.814345,0.053261657802328416
Li0.1356In0.0763Y0.0085Ti0.0169P0.1525O0.6102,Li2.6667In1.5Y0.1667Ti0.3333P3O12,8.690509,0.04312985747518054
Li0.1356In0.0847Y0.0000Ti0.0169P0.1525O0.6102,Li2.6667In1.6667Y0.0Ti0.3333P3O12,5.7995377,
Li0.1429In0.0000Y0.0924Ti0.0084P0.1513O0.6050,Li2.8333In0.0Y1.8333Ti0.1667P3O12,10.745177,
Li0.1429In0.0168Y0.0756Ti0.0084P0.1513O0.6050,Li2.8333In0.3333Y1.5Ti0.1667P3O12,11.019099,0.0667111954216998
Li0.1429In0.0252Y0.0672Ti0.0084P0.1513O0.6050,Li2.8333In0.5Y1.3333Ti0.1667P3O12,11.306348,0.06880768524201222
Li0.1429In0.0420Y0.0504Ti0.0084P0.1513O0.6050,Li2.8333In0.8333Y1.0Ti0.1667P3O12,12.545876,0.0684545766570958
Li0.1429In0.0504Y0.0420Ti0.0084P0.1513O0.6050,Li2.8333In1.0Y0.8333Ti0.1667P3O12,12.545876,0.065460883874609
Li0.1429In0.0672Y0.0252Ti0.0084P0.1513O0.6050,Li2.8333In1.3333Y0.5Ti0.1667P3O12,12.545876,0.05808944324163574
Li0.1429In0.0756Y0.0168Ti0.0084P0.1513O0.6050,Li2.8333In1.5Y0.3333Ti0.1667P3O12,12.545876,0.05230440716186947
Li0.1429In0.0924Y0.0000Ti0.0084P0.1513O0.6050,Li2.8333In1.8333Y0.0Ti0.1667P3O12,9.531069,
Li0.1500In0.0000Y0.1000Ti0.0000P0.1500O0.6000,Li3.0In0.0Y2.0Ti0.0P3O12,14.091233,
Li0.1500In0.0083Y0.0917Ti0.0000P0.1500O0.6000,Li3.0In0.1667Y1.8333Ti0.0P3O12,14.091233,
Li0.1500In0.0167Y0.0833Ti0.0000P0.1500O0.6000,Li3.0In0.3333Y1.6667Ti0.0P3O12,14.365155,
Li0.1500In0.0250Y0.0750Ti0.0000P0.1500O0.6000,Li3.0In0.5Y1.5Ti0.0P3O12,14.652404,
Li0.1500In0.0333Y0.0667Ti0.0000P0.1500O0.6000,Li3.0In0.6667Y1.3333Ti0.0P3O12,14.652404,
Li0.1500In0.0417Y0.0583Ti0.0000P0.1500O0.6000,Li3.0In0.8333Y1.1667Ti0.0P3O12,15.891932,
Li0.1500In0.0500Y0.0500Ti0.0000P0.1500O0.6000,Li3.0In1.0Y1.0Ti0.0P3O12,15.891932,
Li0.1500In0.0583Y0.0417Ti0.0000P0.1500O0.6000,Li3.0In1.1667Y0.8333Ti0.0P3O12,15.891932,
Li0.1500In0.0667Y0.0333Ti0.0000P0.1500O0.6000,Li3.0In1.3333Y0.6667Ti0.0P3O12,15.891932,
Li0.1500In0.0750Y0.0250Ti0.0000P0.1500O0.6000,Li3.0In1.5Y0.5Ti0.0P3O12,15.891932,
Li0.1500In0.0833Y0.0167Ti0.0000P0.1500O0.6000,Li3.0In1.6667Y0.3333Ti0.0P3O12,12.94803,
Li0.1500In0.0917Y0.0083Ti0.0000P0.1500O0.6000,Li3.0In1.8333Y0.1667Ti0.0P3O12,12.877124,
Li0.1500In0.1000Y0.0000Ti0.0000P0.1500O0.6000,Li3.0In2.0Y0.0Ti0.0P3O12,12.877124,
Li0.0556In0.0000Hf0.0000Ti0.1111P0.1667O0.6667,Li1.0In0.0Hf0.0Ti2.0P3O12,7.7087817,
Li0.0642In0.0000Hf0.0092Ti0.1009P0.1651O0.6605,Li1.1667In0.0Hf0.1667Ti1.8333P3O12,7.7087817,
Li0.0642In0.0092Hf0.0000Ti0.1009P0.1651O0.6605,Li1.1667In0.1667Hf0.0Ti1.8333P3O12,7.7087817,
Li0.0727In0.0000Hf0.0182Ti0.0909P0.1636O0.6545,Li1.3333In0.0Hf0.3333Ti1.6667P3O12,7.7087817,
Li0.0727In0.0182Hf0.0000Ti0.0909P0.1636O0.6545,Li1.3333In0.3333Hf0.0Ti1.6667P3O12,8.017441,
Li0.0811In0.0000Hf0.0270Ti0.0811P0.1622O0.6486,Li1.5In0.0Hf0.5Ti1.5P3O12,7.750805,
Li0.0811In0.0090Hf0.0180Ti0.0811P0.1622O0.6486,Li1.5In0.1667Hf0.3333Ti1.5P3O12,7.750805,0.04937641925595407
Li0.0811In0.0180Hf0.0090Ti0.0811P0.1622O0.6486,Li1.5In0.3333Hf0.1667Ti1.5P3O12,8.036197,0.062440781501038586
Li0.0811In0.0270Hf0.0000Ti0.0811P0.1622O0.6486,Li1.5In0.5Hf0.0Ti1.5P3O12,8.31198,
Li0.0893In0.0000Hf0.0357Ti0.0714P0.1607O0.6429,Li1.6667In0.0Hf0.6667Ti1.3333P3O12,8.1233835,
Li0.0893In0.0089Hf0.0268Ti0.0714P0.1607O0.6429,Li1.6667In0.1667Hf0.5Ti1.3333P3O12,8.129335,0.04569354880561593
Li0.0893In0.0268Hf0.0089Ti0.0714P0.1607O0.6429,Li1.6667In0.5Hf0.1667Ti1.3333P3O12,8.690509,0.06060771684520137
Li0.0893In0.0357Hf0.0000Ti0.0714P0.1607O0.6429,Li1.6667In0.6667Hf0.0Ti1.3333P3O12,8.690509,
Li0.0973In0.0000Hf0.0442Ti0.0619P0.1593O0.6372,Li1.8333In0.0Hf0.8333Ti1.1667P3O12,8.1233835,
Li0.0973In0.0177Hf0.0265Ti0.0619P0.1593O0.6372,Li1.8333In0.3333Hf0.5Ti1.1667P3O12,8.414724,0.04745228531416383
Li0.0973In0.0265Hf0.0177Ti0.0619P0.1593O0.6372,Li1.8333In0.5Hf0.3333Ti1.1667P3O12,8.690509,0.049526601060660376