formula,original_formula,thermal_expansion,li ion conductivity
Li0.0642B0.0000Fe0.0092Ti0.1009P0.1651O0.6605,Li1.1667B0.0Fe0.1667Ti1.8333P3O12,7.7087817,
Li0.0642B0.0092Fe0.0000Ti0.1009P0.1651O0.6605,Li1.1667B0.1667Fe0.0Ti1.8333P3O12,7.7087817,
Li0.0727B0.0000Fe0.0182Ti0.0909P0.1636O0.6545,Li1.3333B0.0Fe0.3333Ti1.6667P3O12,7.7087817,
Li0.0727B0.0182Fe0.0000Ti0.0909P0.1636O0.6545,Li1.3333B0.3333Fe0.0Ti1.6667P3O12,7.7087817,
Li0.0811B0.0000Fe0.0270Ti0.0811P0.1622O0.6486,Li1.5B0.0Fe0.5Ti1.5P3O12,6.671572,
Li0.0811B0.0090Fe0.0180Ti0.0811P0.1622O0.6486,Li1.5B0.1667Fe0.3333Ti1.5P3O12,7.750805,5.073038345206856
Li0.1429Co0.0504B0.0420Ti0.0084P0.1513O0.6050,Li2.8333Co1.0B0.8333Ti0.1667P3O12,11.87875,10.18716412227883
Li0.0811B0.0270Fe0.0000Ti0.0811P0.1622O0.6486,Li1.5B0.5Fe0.0Ti1.5P3O12,7.750805,
Li0.0893B0.0000Fe0.0357Ti0.0714P0.1607O0.6429,Li1.6667B0.0Fe0.6667Ti1.3333P3O12,7.0501,
Li0.0893B0.0089Fe0.0268Ti0.0714P0.1607O0.6429,Li1.6667B0.1667Fe0.5Ti1.3333P3O12,7.0501,4.306020747168207
Li0.1053Al0.0439Ga0.0088Ti0.0526P0.1579O0.6316,Li2.0Al0.8333Ga0.1667Ti1.0P3O12,9.533785,10.183551968061622
Li0.0893B0.0357Fe0.0000Ti0.0714P0.1607O0.6429,Li1.6667B0.6667Fe0.0Ti1.3333P3O12,8.129335,
Li0.0973B0.0000Fe0.0442Ti0.0619P0.1593O0.6372,Li1.8333B0.0Fe0.8333Ti1.1667P3O12,6.972733,
Li0.0973B0.0177Fe0.0265Ti0.0619P0.1593O0.6372,Li1.8333B0.3333Fe0.5Ti1.1667P3O12,7.0501,6.940242348741133
Li0.1429B0.0420Ni0.0504Ti0.0084P0.1513O0.6050,Li2.8333B0.8333Ni1.0Ti0.1667P3O12,15.325472,10.072150605302356
Li0.0973B0.0442Fe0.0000Ti0.0619P0.1593O0.6372,Li1.8333B0.8333Fe0.0Ti1.1667P3O12,8.129335,
Li0.1053B0.0000Fe0.0526Ti0.0526P0.1579O0.6316,Li2.0B0.0Fe1.0Ti1.0P3O12,7.040515,
Li0.1053B0.0088Fe0.0439Ti0.0526P0.1579O0.6316,Li2.0B0.1667Fe0.8333Ti1.0P3O12,6.972733,3.584377933387956
Li0.1053B0.0175Fe0.0351Ti0.0526P0.1579O0.6316,Li2.0B0.3333Fe0.6667Ti1.0P3O12,7.0501,6.157949201846635
Li0.1429Ni0.0504B0.0420Ti0.0084P0.1513O0.6050,Li2.8333Ni1.0B0.8333Ti0.1667P3O12,15.325472,10.072150605302356
Li0.1053B0.0263As0.0263Ti0.0526P0.1579O0.6316,Li2.0B0.5As0.5Ti1.0P3O12,8.129335,9.985638047535721
Li0.1053B0.0351Al0.0175Ti0.0526P0.1579O0.6316,Li2.0B0.6667Al0.3333Ti1.0P3O12,8.129335,9.952352688099033
Li0.1053B0.0526Fe0.0000Ti0.0526P0.1579O0.6316,Li2.0B1.0Fe0.0Ti1.0P3O12,8.129335,
Li0.1130B0.0000Fe0.0609Ti0.0435P0.1565O0.6261,Li2.1667B0.0Fe1.1667Ti0.8333P3O12,7.040515,
Li0.1130B0.0087Fe0.0522Ti0.0435P0.1565O0.6261,Li2.1667B0.1667Fe1.0Ti0.8333P3O12,6.972733,2.6665768411281663
Li0.1130B0.0261Fe0.0348Ti0.0435P0.1565O0.6261,Li2.1667B0.5Fe0.6667Ti0.8333P3O12,7.0501,0.05320835164323786
Li0.1130B0.0348Fe0.0261Ti0.0435P0.1565O0.6261,Li2.1667B0.6667Fe0.5Ti0.8333P3O12,7.0501,0.07769622761276725
Li0.1130B0.0522Fe0.0087Ti0.0435P0.1565O0.6261,Li2.1667B1.0Fe0.1667Ti0.8333P3O12,8.129335,0.5461981502145159
Li0.1130B0.0609Fe0.0000Ti0.0435P0.1565O0.6261,Li2.1667B1.1667Fe0.0Ti0.8333P3O12,8.129335,
Li0.1207B0.0000Fe0.0690Ti0.0345P0.1552O0.6207,Li2.3333B0.0Fe1.3333Ti0.6667P3O12,7.040515,
Li0.1207B0.0172Fe0.0517Ti0.0345P0.1552O0.6207,Li2.3333B0.3333Fe1.0Ti0.6667P3O12,6.972733,4.463282622888431
Li0.1207B0.0259Fe0.0431Ti0.0345P0.1552O0.6207,Li2.3333B0.5Fe0.8333Ti0.6667P3O12,6.972733,0.03989861956677971
Li0.1207B0.0431Fe0.0259Ti0.0345P0.1552O0.6207,Li2.3333B0.8333Fe0.5Ti0.6667P3O12,7.0501,0.07766637582816317
Li0.1207B0.0517Fe0.0172Ti0.0345P0.1552O0.6207,Li2.3333B1.0Fe0.3333Ti0.6667P3O12,8.129335,0.8850986574599349
Li0.1207B0.0690Fe0.0000Ti0.0345P0.1552O0.6207,Li2.3333B1.3333Fe0.0Ti0.6667P3O12,8.129335,
Li0.1282B0.0000Fe0.0769Ti0.0256P0.1538O0.6154,Li2.5B0.0Fe1.5Ti0.5P3O12,7.040515,
Li0.1282B0.0085Fe0.0684Ti0.0256P0.1538O0.6154,Li2.5B0.1667Fe1.3333Ti0.5P3O12,7.040515,3.278281319562526
Li0.1282B0.0171Fe0.0598Ti0.0256P0.1538O0.6154,Li2.5B0.3333Fe1.1667Ti0.5P3O12,7.040515,4.916430610527576
Li0.1282B0.0256Fe0.0513Ti0.0256P0.1538O0.6154,Li2.5B0.5Fe1.0Ti0.5P3O12,6.972733,5.996052268447191
Li0.1282B0.0342Fe0.0427Ti0.0256P0.1538O0.6154,Li2.5B0.6667Fe0.8333Ti0.5P3O12,6.972733,0.04048730580918712
Li0.1282B0.0427Fe0.0342Ti0.0256P0.1538O0.6154,Li2.5B0.8333Fe0.6667Ti0.5P3O12,7.0501,0.054569133788762714
Li0.1282B0.0513Fe0.0256Ti0.0256P0.1538O0.6154,Li2.5B1.0Fe0.5Ti0.5P3O12,7.0501,1.1119691768037052
Li0.1282B0.0598Fe0.0171Ti0.0256P0.1538O0.6154,Li2.5B1.1667Fe0.3333Ti0.5P3O12,8.129335,0.9614666773613225
Li0.1282B0.0684Fe0.0085Ti0.0256P0.1538O0.6154,Li2.5B1.3333Fe0.1667Ti0.5P3O12,8.129335,0.6835067140872554
Li0.1282B0.0769Fe0.0000Ti0.0256P0.1538O0.6154,Li2.5B1.5Fe0.0Ti0.5P3O12,8.129335,
Li0.1356B0.0000Fe0.0847Ti0.0169P0.1525O0.6102,Li2.6667B0.0Fe1.6667Ti0.3333P3O12,7.040515,
Li0.1356B0.0085Fe0.0763Ti0.0169P0.1525O0.6102,Li2.6667B0.1667Fe1.5Ti0.3333P3O12,7.040515,3.981894855343241
Li0.1429B0.0420Cr0.0504Ti0.0084P0.1513O0.6050,Li2.8333B0.8333Cr1.0Ti0.1667P3O12,11.576692,9.925393460659139
Li0.1429Cr0.0504B0.0420Ti0.0084P0.1513O0.6050,Li2.8333Cr1.0B0.8333Ti0.1667P3O12,11.576692,9.925393460659139
Li0.1356B0.0508Fe0.0339Ti0.0169P0.1525O0.6102,Li2.6667B1.0Fe0.6667Ti0.3333P3O12,7.0501,1.3656315384630824
Li0.1356B0.0593Fe0.0254Ti0.0169P0.1525O0.6102,Li2.6667B1.1667Fe0.5Ti0.3333P3O12,7.0501,1.2329595249427523
Li0.1356B0.0763Fe0.0085Ti0.0169P0.1525O0.6102,Li2.6667B1.5Fe0.1667Ti0.3333P3O12,8.129335,0.7933360983731288
Li0.1356B0.0847Fe0.0000Ti0.0169P0.1525O0.6102,Li2.6667B1.6667Fe0.0Ti0.3333P3O12,8.129335,
Li0.1429B0.0000Fe0.0924Ti0.0084P0.1513O0.6050,Li2.8333B0.0Fe1.8333Ti0.1667P3O12,10.772052,
Li0.0811B0.0180Mn0.0090Ti0.0811P0.1622O0.6486,Li1.5B0.3333Mn0.1667Ti1.5P3O12,7.750805,9.901344242534936
Li0.0973B0.0265Mn0.0177Ti0.0619P0.1593O0.6372,Li1.8333B0.5Mn0.3333Ti1.1667P3O12,8.129335,9.827894572641894
Li0.0893B0.0268Co0.0089Ti0.0714P0.1607O0.6429,Li1.6667B0.5Co0.1667Ti1.3333P3O12,8.129335,9.817427867003198
Li0.1429B0.0504Fe0.0420Ti0.0084P0.1513O0.6050,Li2.8333B1.0Fe0.8333Ti0.1667P3O12,10.704269,1.7647584335123243
Li0.1429B0.0672Fe0.0252Ti0.0084P0.1513O0.6050,Li2.8333B1.3333Fe0.5Ti0.1667P3O12,10.781635,1.5082653849502785
Li0.1429B0.0756Fe0.0168Ti0.0084P0.1513O0.6050,Li2.8333B1.5Fe0.3333Ti0.1667P3O12,11.860868,1.3166572716296667
Li0.1429B0.0924Fe0.0000Ti0.0084P0.1513O0.6050,Li2.8333B1.8333Fe0.0Ti0.1667P3O12,11.860868,
Li0.1500B0.0000Fe0.1000Ti0.0000P0.1500O0.6000,Li3.0B0.0Fe2.0Ti0.0P3O12,13.206304,
Li0.1500B0.0083Fe0.0917Ti0.0000P0.1500O0.6000,Li3.0B0.1667Fe1.8333Ti0.0P3O12,13.332053,
Li0.1500B0.0167Fe0.0833Ti0.0000P0.1500O0.6000,Li3.0B0.3333Fe1.6667Ti0.0P3O12,13.332053,
Li0.1500B0.0250Fe0.0750Ti0.0000P0.1500O0.6000,Li3.0B0.5Fe1.5Ti0.0P3O12,13.332053,
Li0.1500B0.0333Fe0.0667Ti0.0000P0.1500O0.6000,Li3.0B0.6667Fe1.3333Ti0.0P3O12,13.332053,
Li0.1500B0.0417Fe0.0583Ti0.0000P0.1500O0.6000,Li3.0B0.8333Fe1.1667Ti0.0P3O12,13.332053,
Li0.1500B0.0500Fe0.0500Ti0.0000P0.1500O0.6000,Li3.0B1.0Fe1.0Ti0.0P3O12,13.264271,
Li0.1500B0.0583Fe0.0417Ti0.0000P0.1500O0.6000,Li3.0B1.1667Fe0.8333Ti0.0P3O12,13.264271,
Li0.1500B0.0667Fe0.0333Ti0.0000P0.1500O0.6000,Li3.0B1.3333Fe0.6667Ti0.0P3O12,13.341637,
Li0.1500B0.0750Fe0.0250Ti0.0000P0.1500O0.6000,Li3.0B1.5Fe0.5Ti0.0P3O12,13.341637,
Li0.1500B0.0833Fe0.0167Ti0.0000P0.1500O0.6000,Li3.0B1.6667Fe0.3333Ti0.0P3O12,15.206924,
Li0.1500B0.0917Fe0.0083Ti0.0000P0.1500O0.6000,Li3.0B1.8333Fe0.1667Ti0.0P3O12,15.206924,
Li0.1500B0.1000Fe0.0000Ti0.0000P0.1500O0.6000,Li3.0B2.0Fe0.0Ti0.0P3O12,15.206924,
Li0.0556B0.0000Ga0.0000Ti0.1111P0.1667O0.6667,Li1.0B0.0Ga0.0Ti2.0P3O12,7.7087817,
Li0.0642B0.0000Ga0.0092Ti0.1009P0.1651O0.6605,Li1.1667B0.0Ga0.1667Ti1.8333P3O12,7.7087817,
Li0.0642B0.0092Ga0.0000Ti0.1009P0.1651O0.6605,Li1.1667B0.1667Ga0.0Ti1.8333P3O12,7.7087817,
Li0.0727B0.0000Ga0.0182Ti0.0909P0.1636O0.6545,Li1.3333B0.0Ga0.3333Ti1.6667P3O12,7.678768,
Li0.0727B0.0182Ga0.0000Ti0.0909P0.1636O0.6545,Li1.3333B0.3333Ga0.0Ti1.6667P3O12,7.7087817,
Li0.0811B0.0000Ga0.0270Ti0.0811P0.1622O0.6486,Li1.5B0.0Ga0.5Ti1.5P3O12,7.7207913,
Li0.0893B0.0268Sc0.0089Ti0.0714P0.1607O0.6429,Li1.6667B0.5Sc0.1667Ti1.3333P3O12,9.405996,9.686964228488783
Li0.0973B0.0265In0.0177Ti0.0619P0.1593O0.6372,Li1.8333B0.5In0.3333Ti1.1667P3O12,8.414724,9.624843331398953
Li0.0811B0.0270Ga0.0000Ti0.0811P0.1622O0.6486,Li1.5B0.5Ga0.0Ti1.5P3O12,7.750805,
Li0.0893B0.0000Ga0.0357Ti0.0714P0.1607O0.6429,Li1.6667B0.0Ga0.6667Ti1.3333P3O12,8.099321,
Li0.1429B0.0252Mn0.0672Ti0.0084P0.1513O0.6050,Li2.8333B0.5Mn1.3333Ti0.1667P3O12,9.4228525,9.588411718295397
Li0.1429Mn0.0672B0.0252Ti0.0084P0.1513O0.6050,Li2.8333Mn1.3333B0.5Ti0.1667P3O12,9.4228525,9.588411718295397
Li0.0893B0.0357Ga0.0000Ti0.0714P0.1607O0.6429,Li1.6667B0.6667Ga0.0Ti1.3333P3O12,8.129335,
Li0.0973B0.0000Ga0.0442Ti0.0619P0.1593O0.6372,Li1.8333B0.0Ga0.8333Ti1.1667P3O12,8.099321,
Li0.1429B0.0252Fe0.0672Ti0.0084P0.1513O0.6050,Li2.8333B0.5Fe1.3333Ti0.1667P3O12,10.772052,9.347125869718663
Li0.1429Fe0.0672B0.0252Ti0.0084P0.1513O0.6050,Li2.8333Fe1.3333B0.5Ti0.1667P3O12,10.772052,9.347125869718663
Li0.0973B0.0442Ga0.0000Ti0.0619P0.1593O0.6372,Li1.8333B0.8333Ga0.0Ti1.1667P3O12,8.129335,
Li0.1053B0.0000Ga0.0526Ti0.0526P0.1579O0.6316,Li2.0B0.0Ga1.0Ti1.0P3O12,8.099321,
Li0.1053B0.0088Ga0.0439Ti0.0526P0.1579O0.6316,Li2.0B0.1667Ga0.8333Ti1.0P3O12,8.099321,6.918266570892509
Li0.1053B0.0439Y0.0088Ti0.0526P0.1579O0.6316,Li2.0B0.8333Y0.1667Ti1.0P3O12,8.129335,9.298525105933452
Li0.1053B0.0263In0.0263Ti0.0526P0.1579O0.6316,Li2.0B0.5In0.5Ti1.0P3O12,8.690509,9.255454752436815
Li0.1053B0.0351Sc0.0175Ti0.0526P0.1579O0.6316,Li2.0B0.6667Sc0.3333Ti1.0P3O12,12.335771,9.158335497455097
Li0.0811B0.0180Al0.0090Ti0.0811P0.1622O0.6486,Li1.5B0.3333Al0.1667Ti1.5P3O12,7.750805,9.10467143911907
Li0.1053B0.0526Ga0.0000Ti0.0526P0.1579O0.6316,Li2.0B1.0Ga0.0Ti1.0P3O12,8.129335,
Li0.1130B0.0000Ga0.0609Ti0.0435P0.1565O0.6261,Li2.1667B0.0Ga1.1667Ti0.8333P3O12,6.7658024,
Li0.1130B0.0087Ga0.0522Ti0.0435P0.1565O0.6261,Li2.1667B0.1667Ga1.0Ti0.8333P3O12,8.099321,0.5232870485440295
Li0.1130B0.0261Ga0.0348Ti0.0435P0.1565O0.6261,Li2.1667B0.5Ga0.6667Ti0.8333P3O12,8.099321,0.7970961564629068
Li0.1130B0.0348Ga0.0261Ti0.0435P0.1565O0.6261,Li2.1667B0.6667Ga0.5Ti0.8333P3O12,8.099321,1.0327538912423204
Li0.1130B0.0522Ga0.0087Ti0.0435P0.1565O0.6261,Li2.1667B1.0Ga0.1667Ti0.8333P3O12,8.129335,0.10080201857351609
Li0.1130B0.0609Ga0.0000Ti0.0435P0.1565O0.6261,Li2.1667B1.1667Ga0.0Ti0.8333P3O12,8.129335,
Li0.1207B0.0000Ga0.0690Ti0.0345P0.1552O0.6207,Li2.3333B0.0Ga1.3333Ti0.6667P3O12,6.7658024,
Li0.1207B0.0172Ga0.0517Ti0.0345P0.1552O0.6207,Li2.3333B0.3333Ga1.0Ti0.6667P3O12,8.099321,0.8723078384305376
Li0.1207B0.0259Ga0.0431Ti0.0345P0.1552O0.6207,Li2.3333B0.5Ga0.8333Ti0.6667P3O12,8.099321,0.6649492140005683
Li0.1207B0.0431Ga0.0259Ti0.0345P0.1552O0.6207,Li2.3333B0.8333Ga0.5Ti0.6667P3O12,8.099321,1.0524345598217835
Li0.1207B0.0517Ga0.0172Ti0.0345P0.1552O0.6207,Li2.3333B1.0Ga0.3333Ti0.6667P3O12,8.099321,0.13106053395888997
Li0.1207B0.0690Ga0.0000Ti0.0345P0.1552O0.6207,Li2.3333B1.3333Ga0.0Ti0.6667P3O12,8.129335,
Li0.1282B0.0000Ga0.0769Ti0.0256P0.1538O0.6154,Li2.5B0.0Ga1.5Ti0.5P3O12,6.7658024,
Li0.1282B0.0085Ga0.0684Ti0.0256P0.1538O0.6154,Li2.5B0.1667Ga1.3333Ti0.5P3O12,6.7658024,0.6178411995189567
Li0.1282B0.0171Ga0.0598Ti0.0256P0.1538O0.6154,Li2.5B0.3333Ga1.1667Ti0.5P3O12,6.7658024,0.9834581642308297
Li0.1282B0.0256Ga0.0513Ti0.0256P0.1538O0.6154,Li2.5B0.5Ga1.0Ti0.5P3O12,8.099321,1.2558037511960178
Li0.1282B0.0342Ga0.0427Ti0.0256P0.1538O0.6154,Li2.5B0.6667Ga0.8333Ti0.5P3O12,8.099321,0.6954323303815676
Li0.1282B0.0427Ga0.0342Ti0.0256P0.1538O0.6154,Li2.5B0.8333Ga0.6667Ti0.5P3O12,8.099321,0.8478215162146915
Li0.1282B0.0513Ga0.0256Ti0.0256P0.1538O0.6154,Li2.5B1.0Ga0.5Ti0.5P3O12,8.099321,0.16078434212659762
Li0.1282B0.0598Ga0.0171Ti0.0256P0.1538O0.6154,Li2.5B1.1667Ga0.3333Ti0.5P3O12,8.099321,0.14377405144362101
Li0.1282B0.0684Ga0.0085Ti0.0256P0.1538O0.6154,Li2.5B1.3333Ga0.1667Ti0.5P3O12,8.129335,0.11574717975763922
Li0.1282B0.0769Ga0.0000Ti0.0256P0.1538O0.6154,Li2.5B1.5Ga0.0Ti0.5P3O12,8.129335,
Li0.1356B0.0000Ga0.0847Ti0.0169P0.1525O0.6102,Li2.6667B0.0Ga1.6667Ti0.3333P3O12,6.7658024,
Li0.1356B0.0085Ga0.0763Ti0.0169P0.1525O0.6102,Li2.6667B0.1667Ga1.5Ti0.3333P3O12,6.7658024,0.7416303956183714
Li0.1356B0.0254Ga0.0593Ti0.0169P0.1525O0.6102,Li2.6667B0.5Ga1.1667Ti0.3333P3O12,6.7658024,1.5241517918740308
Li0.1356B0.0339Ga0.0508Ti0.0169P0.1525O0.6102,Li2.6667B0.6667Ga1.0Ti0.3333P3O12,8.099321,1.7696830001151886
Li0.1356B0.0508Ga0.0339Ti0.0169P0.1525O0.6102,Li2.6667B1.0Ga0.6667Ti0.3333P3O12,8.099321,0.20036515006295602
Li0.1356B0.0593Ga0.0254Ti0.0169P0.1525O0.6102,Li2.6667B1.1667Ga0.5Ti0.3333P3O12,8.099321,0.18439675283299842
Li0.1356B0.0763Ga0.0085Ti0.0169P0.1525O0.6102,Li2.6667B1.5Ga0.1667Ti0.3333P3O12,8.129335,0.13344397710305933
Li0.1356B0.0847Ga0.0000Ti0.0169P0.1525O0.6102,Li2.6667B1.6667Ga0.0Ti0.3333P3O12,8.129335,
Li0.1429B0.0000Ga0.0924Ti0.0084P0.1513O0.6050,Li2.8333B0.0Ga1.8333Ti0.1667P3O12,10.497339,
Li0.1429B0.0168Ga0.0756Ti0.0084P0.1513O0.6050,Li2.8333B0.3333Ga1.5Ti0.1667P3O12,10.497339,1.6928895922884972
Li0.1429B0.0252Ga0.0672Ti0.0084P0.1513O0.6050,Li2.8333B0.5Ga1.3333Ti0.1667P3O12,10.497339,2.1860959919628713
Li0.1429B0.0420Ga0.0504Ti0.0084P0.1513O0.6050,Li2.8333B0.8333Ga1.0Ti0.1667P3O12,11.830854,2.848133093127265
Li0.1429B0.0504Ga0.0420Ti0.0084P0.1513O0.6050,Li2.8333B1.0Ga0.8333Ti0.1667P3O12,11.830854,0.29424994002761673
Li0.1429B0.0672Ga0.0252Ti0.0084P0.1513O0.6050,Li2.8333B1.3333Ga0.5Ti0.1667P3O12,11.830854,0.24879702044170876
Li0.1429B0.0756Ga0.0168Ti0.0084P0.1513O0.6050,Li2.8333B1.5Ga0.3333Ti0.1667P3O12,11.830854,0.22064930050519477
Li0.1429B0.0924Ga0.0000Ti0.0084P0.1513O0.6050,Li2.8333B1.8333Ga0.0Ti0.1667P3O12,11.860868,
Li0.1500B0.0000Ga0.1000Ti0.0000P0.1500O0.6000,Li3.0B0.0Ga2.0Ti0.0P3O12,13.755412,
Li0.1500B0.0083Ga0.0917Ti0.0000P0.1500O0.6000,Li3.0B0.1667Ga1.8333Ti0.0P3O12,13.843395,
Li0.1500B0.0167Ga0.0833Ti0.0000P0.1500O0.6000,Li3.0B0.3333Ga1.6667Ti0.0P3O12,13.843395,
Li0.1500B0.0250Ga0.0750Ti0.0000P0.1500O0.6000,Li3.0B0.5Ga1.5Ti0.0P3O12,13.843395,
Li0.1500B0.0333Ga0.0667Ti0.0000P0.1500O0.6000,Li3.0B0.6667Ga1.3333Ti0.0P3O12,13.843395,
Li0.1500B0.0417Ga0.0583Ti0.0000P0.1500O0.6000,Li3.0B0.8333Ga1.1667Ti0.0P3O12,15.17691,
Li0.1500B0.0500Ga0.0500Ti0.0000P0.1500O0.6000,Li3.0B1.0Ga1.0Ti0.0P3O12,15.17691,
Li0.1500B0.0583Ga0.0417Ti0.0000P0.1500O0.6000,Li3.0B1.1667Ga0.8333Ti0.0P3O12,15.17691,
Li0.1500B0.0667Ga0.0333Ti0.0000P0.1500O0.6000,Li3.0B1.3333Ga0.6667Ti0.0P3O12,15.17691,
Li0.1500B0.0750Ga0.0250Ti0.0000P0.1500O0.6000,Li3.0B1.5Ga0.5Ti0.0P3O12,15.17691,
Li0.1500B0.0833Ga0.0167Ti0.0000P0.1500O0.6000,Li3.0B1.6667Ga0.3333Ti0.0P3O12,15.17691,
Li0.1500B0.0917Ga0.0083Ti0.0000P0.1500O0.6000,Li3.0B1.8333Ga0.1667Ti0.0P3O12,15.206924,
Li0.1500B0.1000Ga0.0000Ti0.0000P0.1500O0.6000,Li3.0B2.0Ga0.0Ti0.0P3O12,15.206924,
Li0.0556B0.0000In0.0000Ti0.1111P0.1667O0.6667,Li1.0B0.0In0.0Ti2.0P3O12,7.7087817,
Li0.0642B0.0000In0.0092Ti0.1009P0.1651O0.6605,Li1.1667B0.0In0.1667Ti1.8333P3O12,7.7087817,
Li0.0642B0.0092In0.0000Ti0.1009P0.1651O0.6605,Li1.1667B0.1667In0.0Ti1.8333P3O12,7.7087817,
Li0.0727B0.0000In0.0182Ti0.0909P0.1636O0.6545,Li1.3333B0.0In0.3333Ti1.6667P3O12,8.017441,
Li0.0727B0.0182In0.0000Ti0.0909P0.1636O0.6545,Li1.3333B0.3333In0.0Ti1.6667P3O12,7.7087817,
Li0.0811B0.0000In0.0270Ti0.0811P0.1622O0.6486,Li1.5B0.0In0.5Ti1.5P3O12,8.31198,
Li0.0811B0.0090In0.0180Ti0.0811P0.1622O0.6486,Li1.5B0.1667In0.3333Ti1.5P3O12,8.036197,5.18565021286638
Li0.1053As0.0439Ga0.0088Ti0.0526P0.1579O0.6316,Li2.0As0.8333Ga0.1667Ti1.0P3O12,8.129335,8.980277292601928
Li0.0811B0.0270In0.0000Ti0.0811P0.1622O0.6486,Li1.5B0.5In0.0Ti1.5P3O12,7.750805,
Li0.0893B0.0000In0.0357Ti0.0714P0.1607O0.6429,Li1.6667B0.0In0.6667Ti1.3333P3O12,8.690509,
Li0.0893B0.0089In0.0268Ti0.0714P0.1607O0.6429,Li1.6667B0.1667In0.5Ti1.3333P3O12,8.690509,4.913497653663703
Li0.1429B0.0420Sc0.0504Ti0.0084P0.1513O0.6050,Li2.8333B0.8333Sc1.0Ti0.1667P3O12,10.215678,8.957662409257178
Li0.0893B0.0357In0.0000Ti0.0714P0.1607O0.6429,Li1.6667B0.6667In0.0Ti1.3333P3O12,8.129335,
Li0.0973B0.0000In0.0442Ti0.0619P0.1593O0.6372,Li1.8333B0.0In0.8333Ti1.1667P3O12,8.690509,
Li0.1429Sc0.0504B0.0420Ti0.0084P0.1513O0.6050,Li2.8333Sc1.0B0.8333Ti0.1667P3O12,10.215678,8.957662409257178
Li0.1053B0.0439Ni0.0088Ti0.0526P0.1579O0.6316,Li2.0B0.8333Ni0.1667Ti1.0P3O12,8.129335,8.905159551217443
Li0.0973B0.0442In0.0000Ti0.0619P0.1593O0.6372,Li1.8333B0.8333In0.0Ti1.1667P3O12,8.129335,
Li0.1053B0.0000In0.0526Ti0.0526P0.1579O0.6316,Li2.0B0.0In1.0Ti1.0P3O12,8.690509,
Li0.1053B0.0088In0.0439Ti0.0526P0.1579O0.6316,Li2.0B0.1667In0.8333Ti1.0P3O12,8.690509,4.58397254682622
Li0.1053B0.0351Co0.0175Ti0.0526P0.1579O0.6316,Li2.0B0.6667Co0.3333Ti1.0P3O12,8.129335,8.798693551900616
Li0.0973B0.0177As0.0265Ti0.0619P0.1593O0.6372,Li1.8333B0.3333As0.5Ti1.1667P3O12,8.129335,8.783616624146296
Li0.0811B0.0180In0.0090Ti0.0811P0.1622O0.6486,Li1.5B0.3333In0.1667Ti1.5P3O12,7.750805,8.71786974758711
Li0.0973B0.0265Al0.0177Ti0.0619P0.1593O0.6372,Li1.8333B0.5Al0.3333Ti1.1667P3O12,9.533785,8.700447244481618
Li0.1053B0.0526In0.0000Ti0.0526P0.1579O0.6316,Li2.0B1.0In0.0Ti1.0P3O12,8.129335,
Li0.1130B0.0000In0.0609Ti0.0435P0.1565O0.6261,Li2.1667B0.0In1.1667Ti0.8333P3O12,8.690509,
Li0.1130B0.0087In0.0522Ti0.0435P0.1565O0.6261,Li2.1667B0.1667In1.0Ti0.8333P3O12,8.690509,0.48686354276933747
Li0.1130B0.0261In0.0348Ti0.0435P0.1565O0.6261,Li2.1667B0.5In0.6667Ti0.8333P3O12,8.690509,0.12220696990606446
Li0.1130B0.0348In0.0261Ti0.0435P0.1565O0.6261,Li2.1667B0.6667In0.5Ti0.8333P3O12,8.690509,0.17513912232645587
Li0.1130B0.0522In0.0087Ti0.0435P0.1565O0.6261,Li2.1667B1.0In0.1667Ti0.8333P3O12,8.129335,0.05562423523325047
Li0.1130B0.0609In0.0000Ti0.0435P0.1565O0.6261,Li2.1667B1.1667In0.0Ti0.8333P3O12,8.129335,
Li0.1207B0.0000In0.0690Ti0.0345P0.1552O0.6207,Li2.3333B0.0In1.3333Ti0.6667P3O12,8.690509,
Li0.1207B0.0172In0.0517Ti0.0345P0.1552O0.6207,Li2.3333B0.3333In1.0Ti0.6667P3O12,8.690509,0.9029965519841971
Li0.1207B0.0259In0.0431Ti0.0345P0.1552O0.6207,Li2.3333B0.5In0.8333Ti0.6667P3O12,8.690509,0.09566139989837617
Li0.1207B0.0431In0.0259Ti0.0345P0.1552O0.6207,Li2.3333B0.8333In0.5Ti0.6667P3O12,8.690509,0.18169826360361924
Li0.1207B0.0517In0.0172Ti0.0345P0.1552O0.6207,Li2.3333B1.0In0.3333Ti0.6667P3O12,8.403259,0.06226948644783401
Li0.1207B0.0690In0.0000Ti0.0345P0.1552O0.6207,Li2.3333B1.3333In0.0Ti0.6667P3O12,8.129335,
Li0.1282B0.0000In0.0769Ti0.0256P0.1538O0.6154,Li2.5B0.0In1.5Ti0.5P3O12,5.7995377,
Li0.1282B0.0085In0.0684Ti0.0256P0.1538O0.6154,Li2.5B0.1667In1.3333Ti0.5P3O12,8.690509,0.5988456524841427
Li0.1282B0.0171In0.0598Ti0.0256P0.1538O0.6154,Li2.5B0.3333In1.1667Ti0.5P3O12,8.690509,1.0138497000218183
Li0.1282B0.0256In0.0513Ti0.0256P0.1538O0.6154,Li2.5B0.5In1.0Ti0.5P3O12,8.690509,1.3335485177296944
Li0.1282B0.0342In0.0427Ti0.0256P0.1538O0.6154,Li2.5B0.6667In0.8333Ti0.5P3O12,8.690509,0.10119068667039607
Li0.1282B0.0427In0.0342Ti0.0256P0.1538O0.6154,Li2.5B0.8333In0.6667Ti0.5P3O12,8.690509,0.1341905046049186
Li0.1282B0.0513In0.0256Ti0.0256P0.1538O0.6154,Li2.5B1.0In0.5Ti0.5P3O12,8.690509,0.06674694901393803
Li0.1282B0.0598In0.0171Ti0.0256P0.1538O0.6154,Li2.5B1.1667In0.3333Ti0.5P3O12,8.403259,0.06493260208838114
Li0.1282B0.0684In0.0085Ti0.0256P0.1538O0.6154,Li2.5B1.3333In0.1667Ti0.5P3O12,8.129335,0.058570924080744685
Li0.1282B0.0769In0.0000Ti0.0256P0.1538O0.6154,Li2.5B1.5In0.0Ti0.5P3O12,8.129335,
Li0.1356B0.0000In0.0847Ti0.0169P0.1525O0.6102,Li2.6667B0.0In1.6667Ti0.3333P3O12,5.7995377,
Li0.1356B0.0085In0.0763Ti0.0169P0.1525O0.6102,Li2.6667B0.1667In1.5Ti0.3333P3O12,8.690509,0.7170655728163954
Li0.1356B0.0254In0.0593Ti0.0169P0.1525O0.6102,Li2.6667B0.5In1.1667Ti0.3333P3O12,8.690509,1.6201007982477464
Li0.1356B0.0339In0.0508Ti0.0169P0.1525O0.6102,Li2.6667B0.6667In1.0Ti0.3333P3O12,8.690509,1.934542067091855
Li0.1356B0.0508In0.0339Ti0.0169P0.1525O0.6102,Li2.6667B1.0In0.6667Ti0.3333P3O12,8.690509,0.0736615589690661
Li0.1356B0.0593In0.0254Ti0.0169P0.1525O0.6102,Li2.6667B1.1667In0.5Ti0.3333P3O12,8.690509,0.07065750322366439
Li0.1356B0.0763In0.0085Ti0.0169P0.1525O0.6102,Li2.6667B1.5In0.1667Ti0.3333P3O12,8.129335,0.061268219557152837
Li0.1356B0.0847In0.0000Ti0.0169P0.1525O0.6102,Li2.6667B1.6667In0.0Ti0.3333P3O12,8.129335,
Li0.1429B0.0000In0.0924Ti0.0084P0.1513O0.6050,Li2.8333B0.0In1.8333Ti0.1667P3O12,9.531069,