formula,original_formula,thermal_expansion,li ion conductivity
Li0.1282Ga0.0256As0.0513Ti0.0256P0.1538O0.6154,Li2.5Ga0.5As1.0Ti0.5P3O12,8.099321,0.00021106682390164994
Li0.1282Ga0.0342As0.0427Ti0.0256P0.1538O0.6154,Li2.5Ga0.6667As0.8333Ti0.5P3O12,8.099321,1.1004726410775472e-08
Li0.1282Ga0.0427As0.0342Ti0.0256P0.1538O0.6154,Li2.5Ga0.8333As0.6667Ti0.5P3O12,8.099321,1.7031827504865774e-08
Li0.1282Ga0.0513As0.0256Ti0.0256P0.1538O0.6154,Li2.5Ga1.0As0.5Ti0.5P3O12,8.099321,0.028413552941845954
Li0.1282Ga0.0598As0.0171Ti0.0256P0.1538O0.6154,Li2.5Ga1.1667As0.3333Ti0.5P3O12,6.7658024,0.0392356075591035
Li0.1282Ga0.0684As0.0085Ti0.0256P0.1538O0.6154,Li2.5Ga1.3333As0.1667Ti0.5P3O12,6.7658024,0.06049854877176338
Li0.1282Ga0.0769As0.0000Ti0.0256P0.1538O0.6154,Li2.5Ga1.5As0.0Ti0.5P3O12,6.7658024,
Li0.1356Ga0.0000As0.0847Ti0.0169P0.1525O0.6102,Li2.6667Ga0.0As1.6667Ti0.3333P3O12,8.129335,
Li0.1356Ga0.0085As0.0763Ti0.0169P0.1525O0.6102,Li2.6667Ga0.1667As1.5Ti0.3333P3O12,8.129335,0.0005088040950235771
Li0.1356Ga0.0254As0.0593Ti0.0169P0.1525O0.6102,Li2.6667Ga0.5As1.1667Ti0.3333P3O12,8.099321,0.00033919831172688576
Li0.1356Ga0.0339As0.0508Ti0.0169P0.1525O0.6102,Li2.6667Ga0.6667As1.0Ti0.3333P3O12,8.099321,0.00030556634186678917
Li0.1356Ga0.0508As0.0339Ti0.0169P0.1525O0.6102,Li2.6667Ga1.0As0.6667Ti0.3333P3O12,8.099321,0.032656161111493776
Li0.1356Ga0.0593As0.0254Ti0.0169P0.1525O0.6102,Li2.6667Ga1.1667As0.5Ti0.3333P3O12,6.7658024,0.04147609418368145
Li0.1356Ga0.0763As0.0085Ti0.0169P0.1525O0.6102,Li2.6667Ga1.5As0.1667Ti0.3333P3O12,6.7658024,0.08472673618845437
Li0.1356Ga0.0847As0.0000Ti0.0169P0.1525O0.6102,Li2.6667Ga1.6667As0.0Ti0.3333P3O12,6.7658024,
Li0.1429Ga0.0000As0.0924Ti0.0084P0.1513O0.6050,Li2.8333Ga0.0As1.8333Ti0.1667P3O12,11.860868,
Li0.1429Ga0.0168As0.0756Ti0.0084P0.1513O0.6050,Li2.8333Ga0.3333As1.5Ti0.1667P3O12,11.830854,0.0008627717571003199
Li0.1429Ga0.0252As0.0672Ti0.0084P0.1513O0.6050,Li2.8333Ga0.5As1.3333Ti0.1667P3O12,11.830854,0.0007630166712238463
Li0.1429Ga0.0420As0.0504Ti0.0084P0.1513O0.6050,Li2.8333Ga0.8333As1.0Ti0.1667P3O12,11.830854,0.0006917704491364708
Li0.1429Ga0.0504As0.0420Ti0.0084P0.1513O0.6050,Li2.8333Ga1.0As0.8333Ti0.1667P3O12,11.830854,0.055306831414193444
Li0.1429Ga0.0672As0.0252Ti0.0084P0.1513O0.6050,Li2.8333Ga1.3333As0.5Ti0.1667P3O12,10.497339,0.08524292430367697
Li0.1429Ga0.0756As0.0168Ti0.0084P0.1513O0.6050,Li2.8333Ga1.5As0.3333Ti0.1667P3O12,10.497339,0.11207378568501976
Li0.1429Ga0.0924As0.0000Ti0.0084P0.1513O0.6050,Li2.8333Ga1.8333As0.0Ti0.1667P3O12,10.497339,
Li0.1500Ga0.0000As0.1000Ti0.0000P0.1500O0.6000,Li3.0Ga0.0As2.0Ti0.0P3O12,15.206924,
Li0.1500Ga0.0083As0.0917Ti0.0000P0.1500O0.6000,Li3.0Ga0.1667As1.8333Ti0.0P3O12,15.206924,
Li0.1500Ga0.0167As0.0833Ti0.0000P0.1500O0.6000,Li3.0Ga0.3333As1.6667Ti0.0P3O12,15.17691,
Li0.1500Ga0.0250As0.0750Ti0.0000P0.1500O0.6000,Li3.0Ga0.5As1.5Ti0.0P3O12,15.17691,
Li0.1500Ga0.0333As0.0667Ti0.0000P0.1500O0.6000,Li3.0Ga0.6667As1.3333Ti0.0P3O12,15.17691,
Li0.1500Ga0.0417As0.0583Ti0.0000P0.1500O0.6000,Li3.0Ga0.8333As1.1667Ti0.0P3O12,15.17691,
Li0.1500Ga0.0500As0.0500Ti0.0000P0.1500O0.6000,Li3.0Ga1.0As1.0Ti0.0P3O12,15.17691,
Li0.1500Ga0.0583As0.0417Ti0.0000P0.1500O0.6000,Li3.0Ga1.1667As0.8333Ti0.0P3O12,15.17691,
Li0.1500Ga0.0667As0.0333Ti0.0000P0.1500O0.6000,Li3.0Ga1.3333As0.6667Ti0.0P3O12,13.843395,
Li0.1500Ga0.0750As0.0250Ti0.0000P0.1500O0.6000,Li3.0Ga1.5As0.5Ti0.0P3O12,13.843395,
Li0.1500Ga0.0833As0.0167Ti0.0000P0.1500O0.6000,Li3.0Ga1.6667As0.3333Ti0.0P3O12,13.843395,
Li0.1500Ga0.0917As0.0083Ti0.0000P0.1500O0.6000,Li3.0Ga1.8333As0.1667Ti0.0P3O12,13.843395,
Li0.1500Ga0.1000As0.0000Ti0.0000P0.1500O0.6000,Li3.0Ga2.0As0.0Ti0.0P3O12,13.755412,
Li0.0556Ga0.0000B0.0000Ti0.1111P0.1667O0.6667,Li1.0Ga0.0B0.0Ti2.0P3O12,7.7087817,
Li0.0642Ga0.0000B0.0092Ti0.1009P0.1651O0.6605,Li1.1667Ga0.0B0.1667Ti1.8333P3O12,7.7087817,
Li0.0642Ga0.0092B0.0000Ti0.1009P0.1651O0.6605,Li1.1667Ga0.1667B0.0Ti1.8333P3O12,7.7087817,
Li0.0727Ga0.0000B0.0182Ti0.0909P0.1636O0.6545,Li1.3333Ga0.0B0.3333Ti1.6667P3O12,7.7087817,
Li0.0727Ga0.0182B0.0000Ti0.0909P0.1636O0.6545,Li1.3333Ga0.3333B0.0Ti1.6667P3O12,7.678768,
Li0.0811Ga0.0000B0.0270Ti0.0811P0.1622O0.6486,Li1.5Ga0.0B0.5Ti1.5P3O12,7.750805,
Li0.0811Ga0.0090B0.0180Ti0.0811P0.1622O0.6486,Li1.5Ga0.1667B0.3333Ti1.5P3O12,7.750805,0.15132997662793563
Li0.0811Ga0.0180B0.0090Ti0.0811P0.1622O0.6486,Li1.5Ga0.3333B0.1667Ti1.5P3O12,7.7207913,0.26978963899195896
Li0.0811Ga0.0270B0.0000Ti0.0811P0.1622O0.6486,Li1.5Ga0.5B0.0Ti1.5P3O12,7.7207913,
Li0.0893Ga0.0000B0.0357Ti0.0714P0.1607O0.6429,Li1.6667Ga0.0B0.6667Ti1.3333P3O12,8.129335,
Li0.0893Ga0.0089B0.0268Ti0.0714P0.1607O0.6429,Li1.6667Ga0.1667B0.5Ti1.3333P3O12,8.129335,0.1362340563905652
Li0.0893Ga0.0268B0.0089Ti0.0714P0.1607O0.6429,Li1.6667Ga0.5B0.1667Ti1.3333P3O12,8.099321,0.33253855324857506
Li0.0893Ga0.0357B0.0000Ti0.0714P0.1607O0.6429,Li1.6667Ga0.6667B0.0Ti1.3333P3O12,8.099321,
Li0.0973Ga0.0000B0.0442Ti0.0619P0.1593O0.6372,Li1.8333Ga0.0B0.8333Ti1.1667P3O12,8.129335,
Li0.0973Ga0.0177B0.0265Ti0.0619P0.1593O0.6372,Li1.8333Ga0.3333B0.5Ti1.1667P3O12,8.099321,0.20256040468840222
Li0.0973Ga0.0265B0.0177Ti0.0619P0.1593O0.6372,Li1.8333Ga0.5B0.3333Ti1.1667P3O12,8.099321,0.27825775634900324
Li0.0973Ga0.0442B0.0000Ti0.0619P0.1593O0.6372,Li1.8333Ga0.8333B0.0Ti1.1667P3O12,8.099321,
Li0.1053Ga0.0000B0.0526Ti0.0526P0.1579O0.6316,Li2.0Ga0.0B1.0Ti1.0P3O12,8.129335,
Li0.1053Ga0.0088B0.0439Ti0.0526P0.1579O0.6316,Li2.0Ga0.1667B0.8333Ti1.0P3O12,8.129335,0.12317647541990312
Li0.1053Ga0.0175B0.0351Ti0.0526P0.1579O0.6316,Li2.0Ga0.3333B0.6667Ti1.0P3O12,8.099321,0.19118690335066973
Li0.1053Ga0.0263B0.0263Ti0.0526P0.1579O0.6316,Li2.0Ga0.5B0.5Ti1.0P3O12,8.099321,0.2536314917266914
Li0.1053Ga0.0351B0.0175Ti0.0526P0.1579O0.6316,Li2.0Ga0.6667B0.3333Ti1.0P3O12,8.099321,0.3206084821177146
Li0.1053Ga0.0439B0.0088Ti0.0526P0.1579O0.6316,Li2.0Ga0.8333B0.1667Ti1.0P3O12,8.099321,0.4221296357385708
Li0.1053Ga0.0526B0.0000Ti0.0526P0.1579O0.6316,Li2.0Ga1.0B0.0Ti1.0P3O12,8.099321,
Li0.1130Ga0.0000B0.0609Ti0.0435P0.1565O0.6261,Li2.1667Ga0.0B1.1667Ti0.8333P3O12,8.129335,
Li0.1130Ga0.0087B0.0522Ti0.0435P0.1565O0.6261,Li2.1667Ga0.1667B1.0Ti0.8333P3O12,8.129335,0.10080201857351609
Li0.1130Ga0.0261B0.0348Ti0.0435P0.1565O0.6261,Li2.1667Ga0.5B0.6667Ti0.8333P3O12,8.099321,0.05247536209247979
Li0.1130Ga0.0348B0.0261Ti0.0435P0.1565O0.6261,Li2.1667Ga0.6667B0.5Ti0.8333P3O12,8.099321,0.06606015874768914
Li0.1130Ga0.0522B0.0087Ti0.0435P0.1565O0.6261,Li2.1667Ga1.0B0.1667Ti0.8333P3O12,8.099321,0.5232870485440295
Li0.1130Ga0.0609B0.0000Ti0.0435P0.1565O0.6261,Li2.1667Ga1.1667B0.0Ti0.8333P3O12,6.7658024,
Li0.1207Ga0.0000B0.0690Ti0.0345P0.1552O0.6207,Li2.3333Ga0.0B1.3333Ti0.6667P3O12,8.129335,
Li0.1207Ga0.0172B0.0517Ti0.0345P0.1552O0.6207,Li2.3333Ga0.3333B1.0Ti0.6667P3O12,8.099321,0.13106053395888997
Li0.1207Ga0.0259B0.0431Ti0.0345P0.1552O0.6207,Li2.3333Ga0.5B0.8333Ti0.6667P3O12,8.099321,0.043051792757099375
Li0.1207Ga0.0431B0.0259Ti0.0345P0.1552O0.6207,Li2.3333Ga0.8333B0.5Ti0.6667P3O12,8.099321,0.06607161979626008
Li0.1207Ga0.0517B0.0172Ti0.0345P0.1552O0.6207,Li2.3333Ga1.0B0.3333Ti0.6667P3O12,8.099321,0.8723078384305376
Li0.1207Ga0.0690B0.0000Ti0.0345P0.1552O0.6207,Li2.3333Ga1.3333B0.0Ti0.6667P3O12,6.7658024,
Li0.1282Ga0.0000B0.0769Ti0.0256P0.1538O0.6154,Li2.5Ga0.0B1.5Ti0.5P3O12,8.129335,
Li0.1282Ga0.0085B0.0684Ti0.0256P0.1538O0.6154,Li2.5Ga0.1667B1.3333Ti0.5P3O12,8.129335,0.11574717975763922
Li0.1282Ga0.0171B0.0598Ti0.0256P0.1538O0.6154,Li2.5Ga0.3333B1.1667Ti0.5P3O12,8.099321,0.14377405144362101
Li0.1282Ga0.0256B0.0513Ti0.0256P0.1538O0.6154,Li2.5Ga0.5B1.0Ti0.5P3O12,8.099321,0.16078434212659762
Li0.1282Ga0.0342B0.0427Ti0.0256P0.1538O0.6154,Li2.5Ga0.6667B0.8333Ti0.5P3O12,8.099321,0.041948729413160545
Li0.1282Ga0.0427B0.0342Ti0.0256P0.1538O0.6154,Li2.5Ga0.8333B0.6667Ti0.5P3O12,8.099321,0.05143128994846848
Li0.1282Ga0.0513B0.0256Ti0.0256P0.1538O0.6154,Li2.5Ga1.0B0.5Ti0.5P3O12,8.099321,1.2558037511960178
Li0.1282Ga0.0598B0.0171Ti0.0256P0.1538O0.6154,Li2.5Ga1.1667B0.3333Ti0.5P3O12,6.7658024,0.9834581642308297
Li0.1282Ga0.0684B0.0085Ti0.0256P0.1538O0.6154,Li2.5Ga1.3333B0.1667Ti0.5P3O12,6.7658024,0.6178411995189567
Li0.1282Ga0.0769B0.0000Ti0.0256P0.1538O0.6154,Li2.5Ga1.5B0.0Ti0.5P3O12,6.7658024,
Li0.1356Ga0.0000B0.0847Ti0.0169P0.1525O0.6102,Li2.6667Ga0.0B1.6667Ti0.3333P3O12,8.129335,
Li0.1356Ga0.0085B0.0763Ti0.0169P0.1525O0.6102,Li2.6667Ga0.1667B1.5Ti0.3333P3O12,8.129335,0.13344397710305933
Li0.1356Ga0.0254B0.0593Ti0.0169P0.1525O0.6102,Li2.6667Ga0.5B1.1667Ti0.3333P3O12,8.099321,0.18439675283299842
Li0.1356Ga0.0339B0.0508Ti0.0169P0.1525O0.6102,Li2.6667Ga0.6667B1.0Ti0.3333P3O12,8.099321,0.20036515006295602
Li0.1356Ga0.0508B0.0339Ti0.0169P0.1525O0.6102,Li2.6667Ga1.0B0.6667Ti0.3333P3O12,8.099321,1.7696830001151886
Li0.1356Ga0.0593B0.0254Ti0.0169P0.1525O0.6102,Li2.6667Ga1.1667B0.5Ti0.3333P3O12,6.7658024,1.5241517918740308
Li0.1356Ga0.0763B0.0085Ti0.0169P0.1525O0.6102,Li2.6667Ga1.5B0.1667Ti0.3333P3O12,6.7658024,0.7416303956183714
Li0.1356Ga0.0847B0.0000Ti0.0169P0.1525O0.6102,Li2.6667Ga1.6667B0.0Ti0.3333P3O12,6.7658024,
Li0.1429Ga0.0000B0.0924Ti0.0084P0.1513O0.6050,Li2.8333Ga0.0B1.8333Ti0.1667P3O12,11.860868,
Li0.1429Ga0.0168B0.0756Ti0.0084P0.1513O0.6050,Li2.8333Ga0.3333B1.5Ti0.1667P3O12,11.830854,0.22064930050519477
Li0.1429Ga0.0252B0.0672Ti0.0084P0.1513O0.6050,Li2.8333Ga0.5B1.3333Ti0.1667P3O12,11.830854,0.24879702044170876
Li0.1429Ga0.0420B0.0504Ti0.0084P0.1513O0.6050,Li2.8333Ga0.8333B1.0Ti0.1667P3O12,11.830854,0.29424994002761673
Li0.1429Ga0.0504B0.0420Ti0.0084P0.1513O0.6050,Li2.8333Ga1.0B0.8333Ti0.1667P3O12,11.830854,2.848133093127265
Li0.1429Ga0.0672B0.0252Ti0.0084P0.1513O0.6050,Li2.8333Ga1.3333B0.5Ti0.1667P3O12,10.497339,2.1860959919628713
Li0.1429Ga0.0756B0.0168Ti0.0084P0.1513O0.6050,Li2.8333Ga1.5B0.3333Ti0.1667P3O12,10.497339,1.6928895922884972
Li0.1429Ga0.0924B0.0000Ti0.0084P0.1513O0.6050,Li2.8333Ga1.8333B0.0Ti0.1667P3O12,10.497339,
Li0.1500Ga0.0000B0.1000Ti0.0000P0.1500O0.6000,Li3.0Ga0.0B2.0Ti0.0P3O12,15.206924,
Li0.1500Ga0.0083B0.0917Ti0.0000P0.1500O0.6000,Li3.0Ga0.1667B1.8333Ti0.0P3O12,15.206924,
Li0.1500Ga0.0167B0.0833Ti0.0000P0.1500O0.6000,Li3.0Ga0.3333B1.6667Ti0.0P3O12,15.17691,
Li0.1500Ga0.0250B0.0750Ti0.0000P0.1500O0.6000,Li3.0Ga0.5B1.5Ti0.0P3O12,15.17691,
Li0.1500Ga0.0333B0.0667Ti0.0000P0.1500O0.6000,Li3.0Ga0.6667B1.3333Ti0.0P3O12,15.17691,
Li0.1500Ga0.0417B0.0583Ti0.0000P0.1500O0.6000,Li3.0Ga0.8333B1.1667Ti0.0P3O12,15.17691,
Li0.1500Ga0.0500B0.0500Ti0.0000P0.1500O0.6000,Li3.0Ga1.0B1.0Ti0.0P3O12,15.17691,
Li0.1500Ga0.0583B0.0417Ti0.0000P0.1500O0.6000,Li3.0Ga1.1667B0.8333Ti0.0P3O12,15.17691,
Li0.1500Ga0.0667B0.0333Ti0.0000P0.1500O0.6000,Li3.0Ga1.3333B0.6667Ti0.0P3O12,13.843395,
Li0.1500Ga0.0750B0.0250Ti0.0000P0.1500O0.6000,Li3.0Ga1.5B0.5Ti0.0P3O12,13.843395,
Li0.1500Ga0.0833B0.0167Ti0.0000P0.1500O0.6000,Li3.0Ga1.6667B0.3333Ti0.0P3O12,13.843395,
Li0.1500Ga0.0917B0.0083Ti0.0000P0.1500O0.6000,Li3.0Ga1.8333B0.1667Ti0.0P3O12,13.843395,
Li0.1500Ga0.1000B0.0000Ti0.0000P0.1500O0.6000,Li3.0Ga2.0B0.0Ti0.0P3O12,13.755412,
Li0.0556Ga0.0000Co0.0000Ti0.1111P0.1667O0.6667,Li1.0Ga0.0Co0.0Ti2.0P3O12,7.7087817,
Li0.0642Ga0.0000Co0.0092Ti0.1009P0.1651O0.6605,Li1.1667Ga0.0Co0.1667Ti1.8333P3O12,7.7087817,
Li0.0642Ga0.0092Co0.0000Ti0.1009P0.1651O0.6605,Li1.1667Ga0.1667Co0.0Ti1.8333P3O12,7.7087817,
Li0.0727Ga0.0000Co0.0182Ti0.0909P0.1636O0.6545,Li1.3333Ga0.0Co0.3333Ti1.6667P3O12,7.7087817,
Li0.0727Ga0.0182Co0.0000Ti0.0909P0.1636O0.6545,Li1.3333Ga0.3333Co0.0Ti1.6667P3O12,7.678768,
Li0.0811Ga0.0000Co0.0270Ti0.0811P0.1622O0.6486,Li1.5Ga0.0Co0.5Ti1.5P3O12,7.750805,
Li0.0811Ga0.0090Co0.0180Ti0.0811P0.1622O0.6486,Li1.5Ga0.1667Co0.3333Ti1.5P3O12,7.750805,0.16179925105669407
Li0.0811Ga0.0180Co0.0090Ti0.0811P0.1622O0.6486,Li1.5Ga0.3333Co0.1667Ti1.5P3O12,7.7207913,0.2509578262916173
Li0.0811Ga0.0270Co0.0000Ti0.0811P0.1622O0.6486,Li1.5Ga0.5Co0.0Ti1.5P3O12,7.7207913,
Li0.0893Ga0.0000Co0.0357Ti0.0714P0.1607O0.6429,Li1.6667Ga0.0Co0.6667Ti1.3333P3O12,8.129335,
Li0.0893Ga0.0089Co0.0268Ti0.0714P0.1607O0.6429,Li1.6667Ga0.1667Co0.5Ti1.3333P3O12,8.129335,0.1304407919830209
Li0.0893Ga0.0268Co0.0089Ti0.0714P0.1607O0.6429,Li1.6667Ga0.5Co0.1667Ti1.3333P3O12,8.099321,0.26481256320394775
Li0.0893Ga0.0357Co0.0000Ti0.0714P0.1607O0.6429,Li1.6667Ga0.6667Co0.0Ti1.3333P3O12,8.099321,
Li0.0973Ga0.0000Co0.0442Ti0.0619P0.1593O0.6372,Li1.8333Ga0.0Co0.8333Ti1.1667P3O12,8.147218,
Li0.0973Ga0.0177Co0.0265Ti0.0619P0.1593O0.6372,Li1.8333Ga0.3333Co0.5Ti1.1667P3O12,8.099321,0.13565782789014427
Li0.0973Ga0.0265Co0.0177Ti0.0619P0.1593O0.6372,Li1.8333Ga0.5Co0.3333Ti1.1667P3O12,8.099321,0.17866831391171745
Li0.0973Ga0.0442Co0.0000Ti0.0619P0.1593O0.6372,Li1.8333Ga0.8333Co0.0Ti1.1667P3O12,8.099321,
Li0.1053Ga0.0000Co0.0526Ti0.0526P0.1579O0.6316,Li2.0Ga0.0Co1.0Ti1.0P3O12,8.147218,
Li0.1053Ga0.0088Co0.0439Ti0.0526P0.1579O0.6316,Li2.0Ga0.1667Co0.8333Ti1.0P3O12,8.147218,0.08760804378365271
Li0.1053Ga0.0175Co0.0351Ti0.0526P0.1579O0.6316,Li2.0Ga0.3333Co0.6667Ti1.0P3O12,8.099321,0.10841723172162605
Li0.1053Ga0.0263Co0.0263Ti0.0526P0.1579O0.6316,Li2.0Ga0.5Co0.5Ti1.0P3O12,8.099321,0.13443833061847035
Li0.1053Ga0.0351Co0.0175Ti0.0526P0.1579O0.6316,Li2.0Ga0.6667Co0.3333Ti1.0P3O12,8.099321,0.17658312407236415
Li0.1053Ga0.0439Co0.0088Ti0.0526P0.1579O0.6316,Li2.0Ga0.8333Co0.1667Ti1.0P3O12,8.099321,0.2772952185329901
Li0.1053Ga0.0526Co0.0000Ti0.0526P0.1579O0.6316,Li2.0Ga1.0Co0.0Ti1.0P3O12,8.099321,
Li0.1130Ga0.0000Co0.0609Ti0.0435P0.1565O0.6261,Li2.1667Ga0.0Co1.1667Ti0.8333P3O12,8.147218,
Li0.1130Ga0.0087Co0.0522Ti0.0435P0.1565O0.6261,Li2.1667Ga0.1667Co1.0Ti0.8333P3O12,8.147218,0.055932037093559525
Li0.1130Ga0.0261Co0.0348Ti0.0435P0.1565O0.6261,Li2.1667Ga0.5Co0.6667Ti0.8333P3O12,8.099321,1.4074121243549161e-06
Li0.1130Ga0.0348Co0.0261Ti0.0435P0.1565O0.6261,Li2.1667Ga0.6667Co0.5Ti0.8333P3O12,8.099321,2.3644372787110186e-06
Li0.1130Ga0.0522Co0.0087Ti0.0435P0.1565O0.6261,Li2.1667Ga1.0Co0.1667Ti0.8333P3O12,8.099321,0.12171365604669183
Li0.1130Ga0.0609Co0.0000Ti0.0435P0.1565O0.6261,Li2.1667Ga1.1667Co0.0Ti0.8333P3O12,6.7658024,
Li0.1207Ga0.0000Co0.0690Ti0.0345P0.1552O0.6207,Li2.3333Ga0.0Co1.3333Ti0.6667P3O12,8.147218,
Li0.1207Ga0.0172Co0.0517Ti0.0345P0.1552O0.6207,Li2.3333Ga0.3333Co1.0Ti0.6667P3O12,8.117204,0.059673909594007965
Li0.1207Ga0.0259Co0.0431Ti0.0345P0.1552O0.6207,Li2.3333Ga0.5Co0.8333Ti0.6667P3O12,8.117204,8.866281340461152e-07
Li0.1207Ga0.0431Co0.0259Ti0.0345P0.1552O0.6207,Li2.3333Ga0.8333Co0.5Ti0.6667P3O12,8.099321,2.2765485522581825e-06
Li0.1207Ga0.0517Co0.0172Ti0.0345P0.1552O0.6207,Li2.3333Ga1.0Co0.3333Ti0.6667P3O12,8.099321,0.20469237968924064
Li0.1207Ga0.0690Co0.0000Ti0.0345P0.1552O0.6207,Li2.3333Ga1.3333Co0.0Ti0.6667P3O12,6.7658024,
Li0.1282Ga0.0000Co0.0769Ti0.0256P0.1538O0.6154,Li2.5Ga0.0Co1.5Ti0.5P3O12,8.147218,
Li0.1282Ga0.0085Co0.0684Ti0.0256P0.1538O0.6154,Li2.5Ga0.1667Co1.3333Ti0.5P3O12,8.147218,0.05914503552710483
Li0.1282Ga0.0171Co0.0598Ti0.0256P0.1538O0.6154,Li2.5Ga0.3333Co1.1667Ti0.5P3O12,8.117204,0.0654771292282774
Li0.1282Ga0.0256Co0.0513Ti0.0256P0.1538O0.6154,Li2.5Ga0.5Co1.0Ti0.5P3O12,8.117204,0.06820939304203075
Li0.1282Ga0.0342Co0.0427Ti0.0256P0.1538O0.6154,Li2.5Ga0.6667Co0.8333Ti0.5P3O12,8.117204,8.279698566476676e-07
Li0.1282Ga0.0427Co0.0342Ti0.0256P0.1538O0.6154,Li2.5Ga0.8333Co0.6667Ti0.5P3O12,8.099321,1.2629164670168351e-06
Li0.1282Ga0.0513Co0.0256Ti0.0256P0.1538O0.6154,Li2.5Ga1.0Co0.5Ti0.5P3O12,8.099321,0.2818640092069452
Li0.1282Ga0.0598Co0.0171Ti0.0256P0.1538O0.6154,Li2.5Ga1.1667Co0.3333Ti0.5P3O12,6.7658024,0.22003939794705082
Li0.1282Ga0.0684Co0.0085Ti0.0256P0.1538O0.6154,Li2.5Ga1.3333Co0.1667Ti0.5P3O12,6.7658024,0.13883545918470927
Li0.1282Ga0.0769Co0.0000Ti0.0256P0.1538O0.6154,Li2.5Ga1.5Co0.0Ti0.5P3O12,6.7658024,
Li0.1356Ga0.0000Co0.0847Ti0.0169P0.1525O0.6102,Li2.6667Ga0.0Co1.6667Ti0.3333P3O12,8.147218,
Li0.1356Ga0.0085Co0.0763Ti0.0169P0.1525O0.6102,Li2.6667Ga0.1667Co1.5Ti0.3333P3O12,8.147218,0.06786039793034092
Li0.1356Ga0.0254Co0.0593Ti0.0169P0.1525O0.6102,Li2.6667Ga0.5Co1.1667Ti0.3333P3O12,8.117204,0.08219970557958142
Li0.1356Ga0.0339Co0.0508Ti0.0169P0.1525O0.6102,Li2.6667Ga0.6667Co1.0Ti0.3333P3O12,8.117204,0.0880101722547305
Li0.1356Ga0.0508Co0.0339Ti0.0169P0.1525O0.6102,Li2.6667Ga1.0Co0.6667Ti0.3333P3O12,8.099321,0.36100402576334484
Li0.1356Ga0.0593Co0.0254Ti0.0169P0.1525O0.6102,Li2.6667Ga1.1667Co0.5Ti0.3333P3O12,6.7658024,0.309991096287764
Li0.1356Ga0.0763Co0.0085Ti0.0169P0.1525O0.6102,Li2.6667Ga1.5Co0.1667Ti0.3333P3O12,6.7658024,0.15486892864797613
Li0.1356Ga0.0847Co0.0000Ti0.0169P0.1525O0.6102,Li2.6667Ga1.6667Co0.0Ti0.3333P3O12,6.7658024,
Li0.1429Ga0.0000Co0.0924Ti0.0084P0.1513O0.6050,Li2.8333Ga0.0Co1.8333Ti0.1667P3O12,11.87875,
Li0.1429Ga0.0168Co0.0756Ti0.0084P0.1513O0.6050,Li2.8333Ga0.3333Co1.5Ti0.1667P3O12,11.848736,0.1096133841116291
Li0.1429Ga0.0252Co0.0672Ti0.0084P0.1513O0.6050,Li2.8333Ga0.5Co1.3333Ti0.1667P3O12,11.848736,0.12221562470324693
Li0.1429Ga0.0420Co0.0504Ti0.0084P0.1513O0.6050,Li2.8333Ga0.8333Co1.0Ti0.1667P3O12,11.848736,0.13720625924310406
Li0.1429Ga0.0504Co0.0420Ti0.0084P0.1513O0.6050,Li2.8333Ga1.0Co0.8333Ti0.1667P3O12,11.848736,0.44959729226887396
Li0.1429Ga0.0672Co0.0252Ti0.0084P0.1513O0.6050,Li2.8333Ga1.3333Co0.5Ti0.1667P3O12,10.497339,0.3640548012376973
Li0.1429Ga0.0756Co0.0168Ti0.0084P0.1513O0.6050,Li2.8333Ga1.5Co0.3333Ti0.1667P3O12,10.497339,0.2916973220058758
Li0.1429Ga0.0924Co0.0000Ti0.0084P0.1513O0.6050,Li2.8333Ga1.8333Co0.0Ti0.1667P3O12,10.497339,
Li0.1500Ga0.0000Co0.1000Ti0.0000P0.1500O0.6000,Li3.0Ga0.0Co2.0Ti0.0P3O12,15.21023,
Li0.1500Ga0.0083Co0.0917Ti0.0000P0.1500O0.6000,Li3.0Ga0.1667Co1.8333Ti0.0P3O12,15.224806,
Li0.1500Ga0.0167Co0.0833Ti0.0000P0.1500O0.6000,Li3.0Ga0.3333Co1.6667Ti0.0P3O12,15.194792,
Li0.1500Ga0.0250Co0.0750Ti0.0000P0.1500O0.6000,Li3.0Ga0.5Co1.5Ti0.0P3O12,15.194792,
Li0.1500Ga0.0333Co0.0667Ti0.0000P0.1500O0.6000,Li3.0Ga0.6667Co1.3333Ti0.0P3O12,15.194792,
Li0.1500Ga0.0417Co0.0583Ti0.0000P0.1500O0.6000,Li3.0Ga0.8333Co1.1667Ti0.0P3O12,15.194792,
Li0.1500Ga0.0500Co0.0500Ti0.0000P0.1500O0.6000,Li3.0Ga1.0Co1.0Ti0.0P3O12,15.194792,
Li0.1500Ga0.0583Co0.0417Ti0.0000P0.1500O0.6000,Li3.0Ga1.1667Co0.8333Ti0.0P3O12,15.194792,
Li0.1500Ga0.0667Co0.0333Ti0.0000P0.1500O0.6000,Li3.0Ga1.3333Co0.6667Ti0.0P3O12,13.843395,
Li0.1500Ga0.0750Co0.0250Ti0.0000P0.1500O0.6000,Li3.0Ga1.5Co0.5Ti0.0P3O12,13.843395,
Li0.1500Ga0.0833Co0.0167Ti0.0000P0.1500O0.6000,Li3.0Ga1.6667Co0.3333Ti0.0P3O12,13.843395,
Li0.1500Ga0.0917Co0.0083Ti0.0000P0.1500O0.6000,Li3.0Ga1.8333Co0.1667Ti0.0P3O12,13.843395,
Li0.1500Ga0.1000Co0.0000Ti0.0000P0.1500O0.6000,Li3.0Ga2.0Co0.0Ti0.0P3O12,13.755412,
Li0.0556Ga0.0000Cr0.0000Ti0.1111P0.1667O0.6667,Li1.0Ga0.0Cr0.0Ti2.0P3O12,7.7087817,
Li0.0642Ga0.0000Cr0.0092Ti0.1009P0.1651O0.6605,Li1.1667Ga0.0Cr0.1667Ti1.8333P3O12,7.7087817,
Li0.0642Ga0.0092Cr0.0000Ti0.1009P0.1651O0.6605,Li1.1667Ga0.1667Cr0.0Ti1.8333P3O12,7.7087817,
Li0.0727Ga0.0000Cr0.0182Ti0.0909P0.1636O0.6545,Li1.3333Ga0.0Cr0.3333Ti1.6667P3O12,7.7087817,
Li0.0727Ga0.0182Cr0.0000Ti0.0909P0.1636O0.6545,Li1.3333Ga0.3333Cr0.0Ti1.6667P3O12,7.678768,
Li0.0811Ga0.0000Cr0.0270Ti0.0811P0.1622O0.6486,Li1.5Ga0.0Cr0.5Ti1.5P3O12,7.750805,
Li0.0811Ga0.0090Cr0.0180Ti0.0811P0.1622O0.6486,Li1.5Ga0.1667Cr0.3333Ti1.5P3O12,7.750805,0.11803706032546221
Li0.0811Ga0.0180Cr0.0090Ti0.0811P0.1622O0.6486,Li1.5Ga0.3333Cr0.1667Ti1.5P3O12,7.7207913,0.1895439648999559
Li0.0811Ga0.0270Cr0.0000Ti0.0811P0.1622O0.6486,Li1.5Ga0.5Cr0.0Ti1.5P3O12,7.7207913,
Li0.0893Ga0.0000Cr0.0357Ti0.0714P0.1607O0.6429,Li1.6667Ga0.0Cr0.6667Ti1.3333P3O12,8.129335,
Li0.0893Ga0.0089Cr0.0268Ti0.0714P0.1607O0.6429,Li1.6667Ga0.1667Cr0.5Ti1.3333P3O12,8.129335,0.10171399772995117
Li0.0893Ga0.0268Cr0.0089Ti0.0714P0.1607O0.6429,Li1.6667Ga0.5Cr0.1667Ti1.3333P3O12,8.099321,0.2059940584213254
Li0.0893Ga0.0357Cr0.0000Ti0.0714P0.1607O0.6429,Li1.6667Ga0.6667Cr0.0Ti1.3333P3O12,8.099321,
Li0.0973Ga0.0000Cr0.0442Ti0.0619P0.1593O0.6372,Li1.8333Ga0.0Cr0.8333Ti1.1667P3O12,7.845156,
Li0.0973Ga0.0177Cr0.0265Ti0.0619P0.1593O0.6372,Li1.8333Ga0.3333Cr0.5Ti1.1667P3O12,8.099321,0.11897100273282987