formula,original_formula,thermal_expansion,li ion conductivity
Li0.1429Fe0.0924Ti0.0084P0.1513O0.6050,Li2.8333Fe1.8333Fe0.0Ti0.1667P3O12,10.772052,
Li0.1500Fe0.1000Ti0.0000P0.1500O0.6000,Li3.0Fe0.0Fe2.0Ti0.0P3O12,13.206304,
Li0.1500Fe0.1000Ti0.0000P0.1500O0.6000,Li3.0Fe0.1667Fe1.8333Ti0.0P3O12,13.206304,
Li0.1500Fe0.1000Ti0.0000P0.1500O0.6000,Li3.0Fe0.3333Fe1.6667Ti0.0P3O12,13.206304,
Li0.1500Fe0.1000Ti0.0000P0.1500O0.6000,Li3.0Fe0.5Fe1.5Ti0.0P3O12,13.206304,
Li0.1500Fe0.1000Ti0.0000P0.1500O0.6000,Li3.0Fe0.6667Fe1.3333Ti0.0P3O12,13.206304,
Li0.1500Fe0.1000Ti0.0000P0.1500O0.6000,Li3.0Fe0.8333Fe1.1667Ti0.0P3O12,13.206304,
Li0.1500Fe0.1000Ti0.0000P0.1500O0.6000,Li3.0Fe1.0Fe1.0Ti0.0P3O12,13.206304,
Li0.1500Fe0.1000Ti0.0000P0.1500O0.6000,Li3.0Fe1.1667Fe0.8333Ti0.0P3O12,13.206304,
Li0.1500Fe0.1000Ti0.0000P0.1500O0.6000,Li3.0Fe1.3333Fe0.6667Ti0.0P3O12,13.206304,
Li0.1500Fe0.1000Ti0.0000P0.1500O0.6000,Li3.0Fe1.5Fe0.5Ti0.0P3O12,13.206304,
Li0.1500Fe0.1000Ti0.0000P0.1500O0.6000,Li3.0Fe1.6667Fe0.3333Ti0.0P3O12,13.206304,
Li0.1500Fe0.1000Ti0.0000P0.1500O0.6000,Li3.0Fe1.8333Fe0.1667Ti0.0P3O12,13.206304,
Li0.1500Fe0.1000Ti0.0000P0.1500O0.6000,Li3.0Fe2.0Fe0.0Ti0.0P3O12,13.206304,
Li0.0556Fe0.0000Ga0.0000Ti0.1111P0.1667O0.6667,Li1.0Fe0.0Ga0.0Ti2.0P3O12,7.7087817,
Li0.0642Fe0.0000Ga0.0092Ti0.1009P0.1651O0.6605,Li1.1667Fe0.0Ga0.1667Ti1.8333P3O12,7.7087817,
Li0.0642Fe0.0092Ga0.0000Ti0.1009P0.1651O0.6605,Li1.1667Fe0.1667Ga0.0Ti1.8333P3O12,7.7087817,
Li0.0727Fe0.0000Ga0.0182Ti0.0909P0.1636O0.6545,Li1.3333Fe0.0Ga0.3333Ti1.6667P3O12,7.678768,
Li0.0727Fe0.0182Ga0.0000Ti0.0909P0.1636O0.6545,Li1.3333Fe0.3333Ga0.0Ti1.6667P3O12,7.7087817,
Li0.0811Fe0.0000Ga0.0270Ti0.0811P0.1622O0.6486,Li1.5Fe0.0Ga0.5Ti1.5P3O12,7.7207913,
Li0.0811Fe0.0090Ga0.0180Ti0.0811P0.1622O0.6486,Li1.5Fe0.1667Ga0.3333Ti1.5P3O12,7.7207913,2.139565581873399
Li0.0811Fe0.0180Ga0.0090Ti0.0811P0.1622O0.6486,Li1.5Fe0.3333Ga0.1667Ti1.5P3O12,7.750805,3.783115729306755
Li0.0811Fe0.0270Ga0.0000Ti0.0811P0.1622O0.6486,Li1.5Fe0.5Ga0.0Ti1.5P3O12,6.671572,
Li0.0893Fe0.0000Ga0.0357Ti0.0714P0.1607O0.6429,Li1.6667Fe0.0Ga0.6667Ti1.3333P3O12,8.099321,
Li0.0893Fe0.0089Ga0.0268Ti0.0714P0.1607O0.6429,Li1.6667Fe0.1667Ga0.5Ti1.3333P3O12,8.099321,1.9828542933865985
Li0.0893Fe0.0268Ga0.0089Ti0.0714P0.1607O0.6429,Li1.6667Fe0.5Ga0.1667Ti1.3333P3O12,7.0501,4.585137838804331
Li0.0893Fe0.0357Ga0.0000Ti0.0714P0.1607O0.6429,Li1.6667Fe0.6667Ga0.0Ti1.3333P3O12,7.0501,
Li0.0973Fe0.0000Ga0.0442Ti0.0619P0.1593O0.6372,Li1.8333Fe0.0Ga0.8333Ti1.1667P3O12,8.099321,
Li0.0973Fe0.0177Ga0.0265Ti0.0619P0.1593O0.6372,Li1.8333Fe0.3333Ga0.5Ti1.1667P3O12,8.099321,3.099124840074505
Li0.0973Fe0.0265Ga0.0177Ti0.0619P0.1593O0.6372,Li1.8333Fe0.5Ga0.3333Ti1.1667P3O12,7.0200863,4.074651725322161
Li0.0973Fe0.0442Ga0.0000Ti0.0619P0.1593O0.6372,Li1.8333Fe0.8333Ga0.0Ti1.1667P3O12,6.972733,
Li0.1053Fe0.0000Ga0.0526Ti0.0526P0.1579O0.6316,Li2.0Fe0.0Ga1.0Ti1.0P3O12,8.099321,
Li0.1053Fe0.0088Ga0.0439Ti0.0526P0.1579O0.6316,Li2.0Fe0.1667Ga0.8333Ti1.0P3O12,8.099321,1.841114040564842
Li0.1053Fe0.0175Ga0.0351Ti0.0526P0.1579O0.6316,Li2.0Fe0.3333Ga0.6667Ti1.0P3O12,8.099321,2.9550403269283616
Li0.1053Fe0.0263Ga0.0263Ti0.0526P0.1579O0.6316,Li2.0Fe0.5Ga0.5Ti1.0P3O12,7.0200863,3.81796909830461
Li0.1053Fe0.0351Ga0.0175Ti0.0526P0.1579O0.6316,Li2.0Fe0.6667Ga0.3333Ti1.0P3O12,7.0200863,4.735797293603252
Li0.1053Fe0.0439Ga0.0088Ti0.0526P0.1579O0.6316,Li2.0Fe0.8333Ga0.1667Ti1.0P3O12,6.972733,5.893960215279337
Li0.1053Fe0.0526Ga0.0000Ti0.0526P0.1579O0.6316,Li2.0Fe1.0Ga0.0Ti1.0P3O12,7.040515,
Li0.1130Fe0.0000Ga0.0609Ti0.0435P0.1565O0.6261,Li2.1667Fe0.0Ga1.1667Ti0.8333P3O12,6.7658024,
Li0.1130Fe0.0087Ga0.0522Ti0.0435P0.1565O0.6261,Li2.1667Fe0.1667Ga1.0Ti0.8333P3O12,8.099321,0.10431786906404217
Li0.1130Fe0.0261Ga0.0348Ti0.0435P0.1565O0.6261,Li2.1667Fe0.5Ga0.6667Ti0.8333P3O12,7.0200863,1.159037277044054
Li0.1130Fe0.0348Ga0.0261Ti0.0435P0.1565O0.6261,Li2.1667Fe0.6667Ga0.5Ti0.8333P3O12,7.0200863,1.4287275754465056
Li0.1130Fe0.0522Ga0.0087Ti0.0435P0.1565O0.6261,Li2.1667Fe1.0Ga0.1667Ti0.8333P3O12,6.972733,0.06940497625920072
Li0.1130Fe0.0609Ga0.0000Ti0.0435P0.1565O0.6261,Li2.1667Fe1.1667Ga0.0Ti0.8333P3O12,7.040515,
Li0.1207Fe0.0000Ga0.0690Ti0.0345P0.1552O0.6207,Li2.3333Fe0.0Ga1.3333Ti0.6667P3O12,6.7658024,
Li0.1207Fe0.0172Ga0.0517Ti0.0345P0.1552O0.6207,Li2.3333Fe0.3333Ga1.0Ti0.6667P3O12,8.099321,0.16990615505717752
Li0.1207Fe0.0259Ga0.0431Ti0.0345P0.1552O0.6207,Li2.3333Fe0.5Ga0.8333Ti0.6667P3O12,7.0200863,1.0219804028625294
Li0.1207Fe0.0431Ga0.0259Ti0.0345P0.1552O0.6207,Li2.3333Fe0.8333Ga0.5Ti0.6667P3O12,6.9427195,1.4970242450000046
Li0.1207Fe0.0517Ga0.0172Ti0.0345P0.1552O0.6207,Li2.3333Fe1.0Ga0.3333Ti0.6667P3O12,6.9427195,0.07409861729934286
Li0.1207Fe0.0690Ga0.0000Ti0.0345P0.1552O0.6207,Li2.3333Fe1.3333Ga0.0Ti0.6667P3O12,7.040515,
Li0.1282Fe0.0000Ga0.0769Ti0.0256P0.1538O0.6154,Li2.5Fe0.0Ga1.5Ti0.5P3O12,6.7658024,
Li0.1282Fe0.0085Ga0.0684Ti0.0256P0.1538O0.6154,Li2.5Fe0.1667Ga1.3333Ti0.5P3O12,6.7658024,0.12179052119163826
Li0.1282Fe0.0171Ga0.0598Ti0.0256P0.1538O0.6154,Li2.5Fe0.3333Ga1.1667Ti0.5P3O12,6.7658024,0.1858872822941779
Li0.1282Fe0.0256Ga0.0513Ti0.0256P0.1538O0.6154,Li2.5Fe0.5Ga1.0Ti0.5P3O12,7.0200863,0.22252337129054314
Li0.1282Fe0.0342Ga0.0427Ti0.0256P0.1538O0.6154,Li2.5Fe0.6667Ga0.8333Ti0.5P3O12,7.0200863,1.0802464406245242
Li0.1282Fe0.0427Ga0.0342Ti0.0256P0.1538O0.6154,Li2.5Fe0.8333Ga0.6667Ti0.5P3O12,6.9427195,1.2798789990951391
Li0.1282Fe0.0513Ga0.0256Ti0.0256P0.1538O0.6154,Li2.5Fe1.0Ga0.5Ti0.5P3O12,6.9427195,0.08392125965915116
Li0.1282Fe0.0598Ga0.0171Ti0.0256P0.1538O0.6154,Li2.5Fe1.1667Ga0.3333Ti0.5P3O12,7.0105014,0.08078105709184644
Li0.1282Fe0.0684Ga0.0085Ti0.0256P0.1538O0.6154,Li2.5Fe1.3333Ga0.1667Ti0.5P3O12,7.040515,0.07316808844354789
Li0.1282Fe0.0769Ga0.0000Ti0.0256P0.1538O0.6154,Li2.5Fe1.5Ga0.0Ti0.5P3O12,7.040515,
Li0.1356Fe0.0000Ga0.0847Ti0.0169P0.1525O0.6102,Li2.6667Fe0.0Ga1.6667Ti0.3333P3O12,6.7658024,
Li0.1356Fe0.0085Ga0.0763Ti0.0169P0.1525O0.6102,Li2.6667Fe0.1667Ga1.5Ti0.3333P3O12,6.7658024,0.1381236629378337
Li0.1356Fe0.0254Ga0.0593Ti0.0169P0.1525O0.6102,Li2.6667Fe0.5Ga1.1667Ti0.3333P3O12,5.6865687,0.2522030451342393
Li0.1356Fe0.0339Ga0.0508Ti0.0169P0.1525O0.6102,Li2.6667Fe0.6667Ga1.0Ti0.3333P3O12,7.0200863,0.28030040805704015
Li0.1356Fe0.0508Ga0.0339Ti0.0169P0.1525O0.6102,Li2.6667Fe1.0Ga0.6667Ti0.3333P3O12,6.9427195,0.10266657428662522
Li0.1356Fe0.0593Ga0.0254Ti0.0169P0.1525O0.6102,Li2.6667Fe1.1667Ga0.5Ti0.3333P3O12,7.0105014,0.09877412951881653
Li0.1356Fe0.0763Ga0.0085Ti0.0169P0.1525O0.6102,Li2.6667Fe1.5Ga0.1667Ti0.3333P3O12,7.040515,0.08407841673912084
Li0.1356Fe0.0847Ga0.0000Ti0.0169P0.1525O0.6102,Li2.6667Fe1.6667Ga0.0Ti0.3333P3O12,7.040515,
Li0.1429Fe0.0000Ga0.0924Ti0.0084P0.1513O0.6050,Li2.8333Fe0.0Ga1.8333Ti0.1667P3O12,10.497339,
Li0.1429Fe0.0168Ga0.0756Ti0.0084P0.1513O0.6050,Li2.8333Fe0.3333Ga1.5Ti0.1667P3O12,10.497339,0.26311306396222356
Li0.1429Fe0.0252Ga0.0672Ti0.0084P0.1513O0.6050,Li2.8333Fe0.5Ga1.3333Ti0.1667P3O12,9.418106,0.31004011192645786
Li0.1429Fe0.0420Ga0.0504Ti0.0084P0.1513O0.6050,Li2.8333Fe0.8333Ga1.0Ti0.1667P3O12,10.674255,0.36480564333836163
Li0.1429Fe0.0504Ga0.0420Ti0.0084P0.1513O0.6050,Li2.8333Fe1.0Ga0.8333Ti0.1667P3O12,10.674255,0.15233729966144627
Li0.1429Fe0.0672Ga0.0252Ti0.0084P0.1513O0.6050,Li2.8333Fe1.3333Ga0.5Ti0.1667P3O12,10.742038,0.13799958996691528
Li0.1429Fe0.0756Ga0.0168Ti0.0084P0.1513O0.6050,Li2.8333Fe1.5Ga0.3333Ti0.1667P3O12,10.742038,0.12794399315446148
Li0.1429Fe0.0924Ga0.0000Ti0.0084P0.1513O0.6050,Li2.8333Fe1.8333Ga0.0Ti0.1667P3O12,10.772052,
Li0.1500Fe0.0000Ga0.1000Ti0.0000P0.1500O0.6000,Li3.0Fe0.0Ga2.0Ti0.0P3O12,13.755412,
Li0.1500Fe0.0083Ga0.0917Ti0.0000P0.1500O0.6000,Li3.0Fe0.1667Ga1.8333Ti0.0P3O12,13.843395,
Li0.1500Fe0.0167Ga0.0833Ti0.0000P0.1500O0.6000,Li3.0Fe0.3333Ga1.6667Ti0.0P3O12,13.843395,
Li0.1500Fe0.0250Ga0.0750Ti0.0000P0.1500O0.6000,Li3.0Fe0.5Ga1.5Ti0.0P3O12,11.978107,
Li0.1500Fe0.0333Ga0.0667Ti0.0000P0.1500O0.6000,Li3.0Fe0.6667Ga1.3333Ti0.0P3O12,11.978107,
Li0.1500Fe0.0417Ga0.0583Ti0.0000P0.1500O0.6000,Li3.0Fe0.8333Ga1.1667Ti0.0P3O12,13.234257,
Li0.1500Fe0.0500Ga0.0500Ti0.0000P0.1500O0.6000,Li3.0Fe1.0Ga1.0Ti0.0P3O12,13.234257,
Li0.1500Fe0.0583Ga0.0417Ti0.0000P0.1500O0.6000,Li3.0Fe1.1667Ga0.8333Ti0.0P3O12,13.302039,
Li0.1500Fe0.0667Ga0.0333Ti0.0000P0.1500O0.6000,Li3.0Fe1.3333Ga0.6667Ti0.0P3O12,13.302039,
Li0.1500Fe0.0750Ga0.0250Ti0.0000P0.1500O0.6000,Li3.0Fe1.5Ga0.5Ti0.0P3O12,13.302039,
Li0.1500Fe0.0833Ga0.0167Ti0.0000P0.1500O0.6000,Li3.0Fe1.6667Ga0.3333Ti0.0P3O12,13.302039,
Li0.1500Fe0.0917Ga0.0083Ti0.0000P0.1500O0.6000,Li3.0Fe1.8333Ga0.1667Ti0.0P3O12,13.332053,
Li0.1500Fe0.1000Ga0.0000Ti0.0000P0.1500O0.6000,Li3.0Fe2.0Ga0.0Ti0.0P3O12,13.206304,
Li0.0556Fe0.0000In0.0000Ti0.1111P0.1667O0.6667,Li1.0Fe0.0In0.0Ti2.0P3O12,7.7087817,
Li0.0642Fe0.0000In0.0092Ti0.1009P0.1651O0.6605,Li1.1667Fe0.0In0.1667Ti1.8333P3O12,7.7087817,
Li0.0642Fe0.0092In0.0000Ti0.1009P0.1651O0.6605,Li1.1667Fe0.1667In0.0Ti1.8333P3O12,7.7087817,
Li0.0727Fe0.0000In0.0182Ti0.0909P0.1636O0.6545,Li1.3333Fe0.0In0.3333Ti1.6667P3O12,8.017441,
Li0.0727Fe0.0182In0.0000Ti0.0909P0.1636O0.6545,Li1.3333Fe0.3333In0.0Ti1.6667P3O12,7.7087817,
Li0.0811Fe0.0000In0.0270Ti0.0811P0.1622O0.6486,Li1.5Fe0.0In0.5Ti1.5P3O12,8.31198,
Li0.0811Fe0.0090In0.0180Ti0.0811P0.1622O0.6486,Li1.5Fe0.1667In0.3333Ti1.5P3O12,8.036197,1.4400921531934003
Li0.0811Fe0.0180In0.0090Ti0.0811P0.1622O0.6486,Li1.5Fe0.3333In0.1667Ti1.5P3O12,7.750805,2.446594324824804
Li0.0811Fe0.0270In0.0000Ti0.0811P0.1622O0.6486,Li1.5Fe0.5In0.0Ti1.5P3O12,6.671572,
Li0.0893Fe0.0000In0.0357Ti0.0714P0.1607O0.6429,Li1.6667Fe0.0In0.6667Ti1.3333P3O12,8.690509,
Li0.0893Fe0.0089In0.0268Ti0.0714P0.1607O0.6429,Li1.6667Fe0.1667In0.5Ti1.3333P3O12,8.690509,1.3177896917229783
Li0.0893Fe0.0268In0.0089Ti0.0714P0.1607O0.6429,Li1.6667Fe0.5In0.1667Ti1.3333P3O12,7.0501,2.9152474624799076
Li0.0893Fe0.0357In0.0000Ti0.0714P0.1607O0.6429,Li1.6667Fe0.6667In0.0Ti1.3333P3O12,7.0501,
Li0.0973Fe0.0000In0.0442Ti0.0619P0.1593O0.6372,Li1.8333Fe0.0In0.8333Ti1.1667P3O12,8.690509,
Li0.0973Fe0.0177In0.0265Ti0.0619P0.1593O0.6372,Li1.8333Fe0.3333In0.5Ti1.1667P3O12,8.690509,2.0785043176621927
Li0.0973Fe0.0265In0.0177Ti0.0619P0.1593O0.6372,Li1.8333Fe0.5In0.3333Ti1.1667P3O12,7.3354874,2.616658345865844
Li0.0973Fe0.0442In0.0000Ti0.0619P0.1593O0.6372,Li1.8333Fe0.8333In0.0Ti1.1667P3O12,6.972733,
Li0.1053Fe0.0000In0.0526Ti0.0526P0.1579O0.6316,Li2.0Fe0.0In1.0Ti1.0P3O12,8.690509,
Li0.1053Fe0.0088In0.0439Ti0.0526P0.1579O0.6316,Li2.0Fe0.1667In0.8333Ti1.0P3O12,8.690509,1.2282076101352803
Li0.1053Fe0.0175In0.0351Ti0.0526P0.1579O0.6316,Li2.0Fe0.3333In0.6667Ti1.0P3O12,8.690509,2.0054397366995445
Li0.1053Fe0.0263In0.0263Ti0.0526P0.1579O0.6316,Li2.0Fe0.5In0.5Ti1.0P3O12,7.611272,2.4860137192594034
Li0.1053Fe0.0351In0.0175Ti0.0526P0.1579O0.6316,Li2.0Fe0.6667In0.3333Ti1.0P3O12,7.3240223,3.0087223419775593
Li0.1053Fe0.0439In0.0088Ti0.0526P0.1579O0.6316,Li2.0Fe0.8333In0.1667Ti1.0P3O12,6.972733,3.8221256049906414
Li0.1053Fe0.0526In0.0000Ti0.0526P0.1579O0.6316,Li2.0Fe1.0In0.0Ti1.0P3O12,7.040515,
Li0.1130Fe0.0000In0.0609Ti0.0435P0.1565O0.6261,Li2.1667Fe0.0In1.1667Ti0.8333P3O12,8.690509,
Li0.1130Fe0.0087In0.0522Ti0.0435P0.1565O0.6261,Li2.1667Fe0.1667In1.0Ti0.8333P3O12,8.690509,0.031540596027490625
Li0.1130Fe0.0261In0.0348Ti0.0435P0.1565O0.6261,Li2.1667Fe0.5In0.6667Ti0.8333P3O12,7.611272,0.36844901599162383
Li0.1130Fe0.0348In0.0261Ti0.0435P0.1565O0.6261,Li2.1667Fe0.6667In0.5Ti0.8333P3O12,7.611272,0.4477769903664668
Li0.1130Fe0.0522In0.0087Ti0.0435P0.1565O0.6261,Li2.1667Fe1.0In0.1667Ti0.8333P3O12,6.972733,0.06507162990245727
Li0.1130Fe0.0609In0.0000Ti0.0435P0.1565O0.6261,Li2.1667Fe1.1667In0.0Ti0.8333P3O12,7.040515,
Li0.1207Fe0.0000In0.0690Ti0.0345P0.1552O0.6207,Li2.3333Fe0.0In1.3333Ti0.6667P3O12,8.690509,
Li0.1207Fe0.0172In0.0517Ti0.0345P0.1552O0.6207,Li2.3333Fe0.3333In1.0Ti0.6667P3O12,8.690509,0.05130777056275751
Li0.1207Fe0.0259In0.0431Ti0.0345P0.1552O0.6207,Li2.3333Fe0.5In0.8333Ti0.6667P3O12,7.611272,0.3121796245746162
Li0.1207Fe0.0431In0.0259Ti0.0345P0.1552O0.6207,Li2.3333Fe0.8333In0.5Ti0.6667P3O12,7.5464606,0.45624742881249364
Li0.1207Fe0.0517In0.0172Ti0.0345P0.1552O0.6207,Li2.3333Fe1.0In0.3333Ti0.6667P3O12,7.259211,0.06448670353313739
Li0.1207Fe0.0690In0.0000Ti0.0345P0.1552O0.6207,Li2.3333Fe1.3333In0.0Ti0.6667P3O12,7.040515,
Li0.1282Fe0.0000In0.0769Ti0.0256P0.1538O0.6154,Li2.5Fe0.0In1.5Ti0.5P3O12,5.7995377,
Li0.1282Fe0.0085In0.0684Ti0.0256P0.1538O0.6154,Li2.5Fe0.1667In1.3333Ti0.5P3O12,8.690509,0.038689411609558605
Li0.1282Fe0.0171In0.0598Ti0.0256P0.1538O0.6154,Li2.5Fe0.3333In1.1667Ti0.5P3O12,8.690509,0.0550493531222388
Li0.1282Fe0.0256In0.0513Ti0.0256P0.1538O0.6154,Li2.5Fe0.5In1.0Ti0.5P3O12,7.611272,0.060715348476696324
Li0.1282Fe0.0342In0.0427Ti0.0256P0.1538O0.6154,Li2.5Fe0.6667In0.8333Ti0.5P3O12,7.611272,0.3072722333385475
Li0.1282Fe0.0427In0.0342Ti0.0256P0.1538O0.6154,Li2.5Fe0.8333In0.6667Ti0.5P3O12,7.5464606,0.36974765303234436
Li0.1282Fe0.0513In0.0256Ti0.0256P0.1538O0.6154,Li2.5Fe1.0In0.5Ti0.5P3O12,7.5464606,0.056336285935682406
Li0.1282Fe0.0598In0.0171Ti0.0256P0.1538O0.6154,Li2.5Fe1.1667In0.3333Ti0.5P3O12,7.326993,0.06388500615918828
Li0.1282Fe0.0684In0.0085Ti0.0256P0.1538O0.6154,Li2.5Fe1.3333In0.1667Ti0.5P3O12,7.040515,0.06601940881069339
Li0.1282Fe0.0769In0.0000Ti0.0256P0.1538O0.6154,Li2.5Fe1.5In0.0Ti0.5P3O12,7.040515,
Li0.1356Fe0.0000In0.0847Ti0.0169P0.1525O0.6102,Li2.6667Fe0.0In1.6667Ti0.3333P3O12,5.7995377,
Li0.1356Fe0.0085In0.0763Ti0.0169P0.1525O0.6102,Li2.6667Fe0.1667In1.5Ti0.3333P3O12,8.690509,0.045216137933306914
Li0.1356Fe0.0254In0.0593Ti0.0169P0.1525O0.6102,Li2.6667Fe0.5In1.1667Ti0.3333P3O12,7.611272,0.06624246348264093
Li0.1356Fe0.0339In0.0508Ti0.0169P0.1525O0.6102,Li2.6667Fe0.6667In1.0Ti0.3333P3O12,7.611272,0.07221593540692867
Li0.1356Fe0.0508In0.0339Ti0.0169P0.1525O0.6102,Li2.6667Fe1.0In0.6667Ti0.3333P3O12,7.5464606,0.05139527509760606
Li0.1356Fe0.0593In0.0254Ti0.0169P0.1525O0.6102,Li2.6667Fe1.1667In0.5Ti0.3333P3O12,7.6142426,0.05816922263646141
Li0.1356Fe0.0763In0.0085Ti0.0169P0.1525O0.6102,Li2.6667Fe1.5In0.1667Ti0.3333P3O12,7.040515,0.06841535424221692
Li0.1356Fe0.0847In0.0000Ti0.0169P0.1525O0.6102,Li2.6667Fe1.6667In0.0Ti0.3333P3O12,7.040515,
Li0.1429Fe0.0000In0.0924Ti0.0084P0.1513O0.6050,Li2.8333Fe0.0In1.8333Ti0.1667P3O12,9.531069,
Li0.1429Fe0.0168In0.0756Ti0.0084P0.1513O0.6050,Li2.8333Fe0.3333In1.5Ti0.1667P3O12,12.422039,0.07062089545408812
Li0.1429Fe0.0252In0.0672Ti0.0084P0.1513O0.6050,Li2.8333Fe0.5In1.3333Ti0.1667P3O12,11.342806,0.0771567496471778
Li0.1429Fe0.0420In0.0504Ti0.0084P0.1513O0.6050,Li2.8333Fe0.8333In1.0Ti0.1667P3O12,11.277995,0.09297407259108477
Li0.1429Fe0.0504In0.0420Ti0.0084P0.1513O0.6050,Li2.8333Fe1.0In0.8333Ti0.1667P3O12,11.277995,0.05310189920148273
Li0.1429Fe0.0672In0.0252Ti0.0084P0.1513O0.6050,Li2.8333Fe1.3333In0.5Ti0.1667P3O12,11.3457775,0.06272497963735109
Li0.1429Fe0.0756In0.0168Ti0.0084P0.1513O0.6050,Li2.8333Fe1.5In0.3333Ti0.1667P3O12,11.058529,0.06861470460696091
Li0.1429Fe0.0924In0.0000Ti0.0084P0.1513O0.6050,Li2.8333Fe1.8333In0.0Ti0.1667P3O12,10.772052,
Li0.1500Fe0.0000In0.1000Ti0.0000P0.1500O0.6000,Li3.0Fe0.0In2.0Ti0.0P3O12,12.877124,
Li0.1500Fe0.0083In0.0917Ti0.0000P0.1500O0.6000,Li3.0Fe0.1667In1.8333Ti0.0P3O12,12.877124,
Li0.1500Fe0.0167In0.0833Ti0.0000P0.1500O0.6000,Li3.0Fe0.3333In1.6667Ti0.0P3O12,12.877124,
Li0.1500Fe0.0250In0.0750Ti0.0000P0.1500O0.6000,Li3.0Fe0.5In1.5Ti0.0P3O12,13.902807,
Li0.1500Fe0.0333In0.0667Ti0.0000P0.1500O0.6000,Li3.0Fe0.6667In1.3333Ti0.0P3O12,13.902807,
Li0.1500Fe0.0417In0.0583Ti0.0000P0.1500O0.6000,Li3.0Fe0.8333In1.1667Ti0.0P3O12,13.8379965,
Li0.1500Fe0.0500In0.0500Ti0.0000P0.1500O0.6000,Li3.0Fe1.0In1.0Ti0.0P3O12,13.8379965,
Li0.1500Fe0.0583In0.0417Ti0.0000P0.1500O0.6000,Li3.0Fe1.1667In0.8333Ti0.0P3O12,13.905779,
Li0.1500Fe0.0667In0.0333Ti0.0000P0.1500O0.6000,Li3.0Fe1.3333In0.6667Ti0.0P3O12,13.905779,
Li0.1500Fe0.0750In0.0250Ti0.0000P0.1500O0.6000,Li3.0Fe1.5In0.5Ti0.0P3O12,13.905779,
Li0.1500Fe0.0833In0.0167Ti0.0000P0.1500O0.6000,Li3.0Fe1.6667In0.3333Ti0.0P3O12,13.61853,
Li0.1500Fe0.0917In0.0083Ti0.0000P0.1500O0.6000,Li3.0Fe1.8333In0.1667Ti0.0P3O12,13.332053,
Li0.1500Fe0.1000In0.0000Ti0.0000P0.1500O0.6000,Li3.0Fe2.0In0.0Ti0.0P3O12,13.206304,
Li0.0556Fe0.0000Mn0.0000Ti0.1111P0.1667O0.6667,Li1.0Fe0.0Mn0.0Ti2.0P3O12,7.7087817,
Li0.0642Fe0.0000Mn0.0092Ti0.1009P0.1651O0.6605,Li1.1667Fe0.0Mn0.1667Ti1.8333P3O12,7.7087817,
Li0.0642Fe0.0092Mn0.0000Ti0.1009P0.1651O0.6605,Li1.1667Fe0.1667Mn0.0Ti1.8333P3O12,7.7087817,
Li0.0727Fe0.0000Mn0.0182Ti0.0909P0.1636O0.6545,Li1.3333Fe0.0Mn0.3333Ti1.6667P3O12,7.7087817,
Li0.0727Fe0.0182Mn0.0000Ti0.0909P0.1636O0.6545,Li1.3333Fe0.3333Mn0.0Ti1.6667P3O12,7.7087817,
Li0.0811Fe0.0000Mn0.0270Ti0.0811P0.1622O0.6486,Li1.5Fe0.0Mn0.5Ti1.5P3O12,7.750805,
Li0.0811Fe0.0090Mn0.0180Ti0.0811P0.1622O0.6486,Li1.5Fe0.1667Mn0.3333Ti1.5P3O12,7.750805,0.4369273502486366
Li0.0811Fe0.0180Mn0.0090Ti0.0811P0.1622O0.6486,Li1.5Fe0.3333Mn0.1667Ti1.5P3O12,7.750805,0.7032991199924811
Li0.0811Fe0.0270Mn0.0000Ti0.0811P0.1622O0.6486,Li1.5Fe0.5Mn0.0Ti1.5P3O12,6.671572,
Li0.0893Fe0.0000Mn0.0357Ti0.0714P0.1607O0.6429,Li1.6667Fe0.0Mn0.6667Ti1.3333P3O12,8.129335,
Li0.0893Fe0.0089Mn0.0268Ti0.0714P0.1607O0.6429,Li1.6667Fe0.1667Mn0.5Ti1.3333P3O12,8.129335,0.41002908589326537
Li0.0893Fe0.0268Mn0.0089Ti0.0714P0.1607O0.6429,Li1.6667Fe0.5Mn0.1667Ti1.3333P3O12,7.0501,0.8244175569083957
Li0.0893Fe0.0357Mn0.0000Ti0.0714P0.1607O0.6429,Li1.6667Fe0.6667Mn0.0Ti1.3333P3O12,7.0501,
Li0.0973Fe0.0000Mn0.0442Ti0.0619P0.1593O0.6372,Li1.8333Fe0.0Mn0.8333Ti1.1667P3O12,7.1790795,
Li0.0973Fe0.0177Mn0.0265Ti0.0619P0.1593O0.6372,Li1.8333Fe0.3333Mn0.5Ti1.1667P3O12,8.129335,0.5824489075055018
Li0.0973Fe0.0265Mn0.0177Ti0.0619P0.1593O0.6372,Li1.8333Fe0.5Mn0.3333Ti1.1667P3O12,7.0501,0.7215609621596712
Li0.0973Fe0.0442Mn0.0000Ti0.0619P0.1593O0.6372,Li1.8333Fe0.8333Mn0.0Ti1.1667P3O12,6.972733,
Li0.1053Fe0.0000Mn0.0526Ti0.0526P0.1579O0.6316,Li2.0Fe0.0Mn1.0Ti1.0P3O12,7.5443654,
Li0.1053Fe0.0088Mn0.0439Ti0.0526P0.1579O0.6316,Li2.0Fe0.1667Mn0.8333Ti1.0P3O12,7.1790795,0.3644477354333147
Li0.1053Fe0.0175Mn0.0351Ti0.0526P0.1579O0.6316,Li2.0Fe0.3333Mn0.6667Ti1.0P3O12,8.129335,0.5578015927257775
Li0.1053Fe0.0263Mn0.0263Ti0.0526P0.1579O0.6316,Li2.0Fe0.5Mn0.5Ti1.0P3O12,7.0501,0.6681275513842836
Li0.1053Fe0.0351Mn0.0175Ti0.0526P0.1579O0.6316,Li2.0Fe0.6667Mn0.3333Ti1.0P3O12,7.0501,0.8011106107007977
Li0.1053Fe0.0439Mn0.0088Ti0.0526P0.1579O0.6316,Li2.0Fe0.8333Mn0.1667Ti1.0P3O12,6.972733,0.9939417767865031
Li0.1053Fe0.0526Mn0.0000Ti0.0526P0.1579O0.6316,Li2.0Fe1.0Mn0.0Ti1.0P3O12,7.040515,
Li0.1130Fe0.0000Mn0.0609Ti0.0435P0.1565O0.6261,Li2.1667Fe0.0Mn1.1667Ti0.8333P3O12,7.5443654,
Li0.1130Fe0.0087Mn0.0522Ti0.0435P0.1565O0.6261,Li2.1667Fe0.1667Mn1.0Ti0.8333P3O12,7.5443654,0.31262192718215637
Li0.1130Fe0.0261Mn0.0348Ti0.0435P0.1565O0.6261,Li2.1667Fe0.5Mn0.6667Ti0.8333P3O12,7.0501,0.0759171855014928
Li0.1130Fe0.0348Mn0.0261Ti0.0435P0.1565O0.6261,Li2.1667Fe0.6667Mn0.5Ti0.8333P3O12,7.0501,0.08419231765726937
Li0.1130Fe0.0522Mn0.0087Ti0.0435P0.1565O0.6261,Li2.1667Fe1.0Mn0.1667Ti0.8333P3O12,6.972733,0.13273737688574722
Li0.1130Fe0.0609Mn0.0000Ti0.0435P0.1565O0.6261,Li2.1667Fe1.1667Mn0.0Ti0.8333P3O12,7.040515,
Li0.1207Fe0.0000Mn0.0690Ti0.0345P0.1552O0.6207,Li2.3333Fe0.0Mn1.3333Ti0.6667P3O12,7.5443654,
Li0.1207Fe0.0172Mn0.0517Ti0.0345P0.1552O0.6207,Li2.3333Fe0.3333Mn1.0Ti0.6667P3O12,7.5443654,0.4853312499905035
Li0.1207Fe0.0259Mn0.0431Ti0.0345P0.1552O0.6207,Li2.3333Fe0.5Mn0.8333Ti0.6667P3O12,6.0998464,0.06642556284290507
Li0.1207Fe0.0431Mn0.0259Ti0.0345P0.1552O0.6207,Li2.3333Fe0.8333Mn0.5Ti0.6667P3O12,6.972733,0.08137338962558566
Li0.1207Fe0.0517Mn0.0172Ti0.0345P0.1552O0.6207,Li2.3333Fe1.0Mn0.3333Ti0.6667P3O12,6.972733,0.22473612484772498
Li0.1207Fe0.0690Mn0.0000Ti0.0345P0.1552O0.6207,Li2.3333Fe1.3333Mn0.0Ti0.6667P3O12,7.040515,
Li0.1282Fe0.0000Mn0.0769Ti0.0256P0.1538O0.6154,Li2.5Fe0.0Mn1.5Ti0.5P3O12,7.5443654,
Li0.1282Fe0.0085Mn0.0684Ti0.0256P0.1538O0.6154,Li2.5Fe0.1667Mn1.3333Ti0.5P3O12,7.5443654,0.36296381331474237
Li0.1282Fe0.0171Mn0.0598Ti0.0256P0.1538O0.6154,Li2.5Fe0.3333Mn1.1667Ti0.5P3O12,7.5443654,0.5232723982124657