formula,original_formula,thermal_expansion,li ion conductivity
Li0.1207B0.0690Sb0.0000Ti0.0345P0.1552O0.6207,Li2.3333B1.3333Sb0.0Ti0.6667P3O12,8.129335,
Li0.1282B0.0000Sb0.0769Ti0.0256P0.1538O0.6154,Li2.5B0.0Sb1.5Ti0.5P3O12,9.055562,
Li0.1282B0.0085Sb0.0684Ti0.0256P0.1538O0.6154,Li2.5B0.1667Sb1.3333Ti0.5P3O12,9.055562,0.6783063847445945
Li0.1282B0.0171Sb0.0598Ti0.0256P0.1538O0.6154,Li2.5B0.3333Sb1.1667Ti0.5P3O12,9.055562,1.07337615691047
Li0.1282B0.0256Sb0.0513Ti0.0256P0.1538O0.6154,Li2.5B0.5Sb1.0Ti0.5P3O12,9.055562,1.3287458924511988
Li0.1282B0.0342Sb0.0427Ti0.0256P0.1538O0.6154,Li2.5B0.6667Sb0.8333Ti0.5P3O12,9.055562,0.0028812845004542766
Li0.1282B0.0427Sb0.0342Ti0.0256P0.1538O0.6154,Li2.5B0.8333Sb0.6667Ti0.5P3O12,9.055562,0.003902748657440019
Li0.1282B0.0513Sb0.0256Ti0.0256P0.1538O0.6154,Li2.5B1.0Sb0.5Ti0.5P3O12,9.055562,0.2659609043386628
Li0.1282B0.0598Sb0.0171Ti0.0256P0.1538O0.6154,Li2.5B1.1667Sb0.3333Ti0.5P3O12,9.072839,0.21163291797809705
Li0.1282B0.0684Sb0.0085Ti0.0256P0.1538O0.6154,Li2.5B1.3333Sb0.1667Ti0.5P3O12,8.129335,0.1374003541117637
Li0.1282B0.0769Sb0.0000Ti0.0256P0.1538O0.6154,Li2.5B1.5Sb0.0Ti0.5P3O12,8.129335,
Li0.1356B0.0000Sb0.0847Ti0.0169P0.1525O0.6102,Li2.6667B0.0Sb1.6667Ti0.3333P3O12,9.055562,
Li0.1356B0.0085Sb0.0763Ti0.0169P0.1525O0.6102,Li2.6667B0.1667Sb1.5Ti0.3333P3O12,9.055562,0.857726630178874
Li0.1356B0.0254Sb0.0593Ti0.0169P0.1525O0.6102,Li2.6667B0.5Sb1.1667Ti0.3333P3O12,9.055562,1.646074544959961
Li0.1356B0.0339Sb0.0508Ti0.0169P0.1525O0.6102,Li2.6667B0.6667Sb1.0Ti0.3333P3O12,9.055562,1.8846042058789083
Li0.1356B0.0508Sb0.0339Ti0.0169P0.1525O0.6102,Li2.6667B1.0Sb0.6667Ti0.3333P3O12,9.055562,0.32303490289103093
Li0.1356B0.0593Sb0.0254Ti0.0169P0.1525O0.6102,Li2.6667B1.1667Sb0.5Ti0.3333P3O12,9.055562,0.2780535940313325
Li0.1356B0.0763Sb0.0085Ti0.0169P0.1525O0.6102,Li2.6667B1.5Sb0.1667Ti0.3333P3O12,8.129335,0.1439022104204299
Li0.1356B0.0847Sb0.0000Ti0.0169P0.1525O0.6102,Li2.6667B1.6667Sb0.0Ti0.3333P3O12,8.129335,
Li0.1429B0.0000Sb0.0924Ti0.0084P0.1513O0.6050,Li2.8333B0.0Sb1.8333Ti0.1667P3O12,12.787092,
Li0.1429B0.0168Sb0.0756Ti0.0084P0.1513O0.6050,Li2.8333B0.3333Sb1.5Ti0.1667P3O12,12.787092,1.7953680404874812
Li0.1429B0.0252Sb0.0672Ti0.0084P0.1513O0.6050,Li2.8333B0.5Sb1.3333Ti0.1667P3O12,12.787092,2.240161509996147
Li0.1429B0.0420Sb0.0504Ti0.0084P0.1513O0.6050,Li2.8333B0.8333Sb1.0Ti0.1667P3O12,12.787092,2.8228273005745717
Li0.1429B0.0504Sb0.0420Ti0.0084P0.1513O0.6050,Li2.8333B1.0Sb0.8333Ti0.1667P3O12,12.787092,0.3972070105312483
Li0.1429B0.0672Sb0.0252Ti0.0084P0.1513O0.6050,Li2.8333B1.3333Sb0.5Ti0.1667P3O12,12.787092,0.30300420112740567
Li0.1429B0.0756Sb0.0168Ti0.0084P0.1513O0.6050,Li2.8333B1.5Sb0.3333Ti0.1667P3O12,12.804369,0.2405466760158666
Li0.1429B0.0924Sb0.0000Ti0.0084P0.1513O0.6050,Li2.8333B1.8333Sb0.0Ti0.1667P3O12,11.860868,
Li0.1500B0.0000Sb0.1000Ti0.0000P0.1500O0.6000,Li3.0B0.0Sb2.0Ti0.0P3O12,16.133144,
Li0.1500B0.0083Sb0.0917Ti0.0000P0.1500O0.6000,Li3.0B0.1667Sb1.8333Ti0.0P3O12,16.133144,
Li0.1500B0.0167Sb0.0833Ti0.0000P0.1500O0.6000,Li3.0B0.3333Sb1.6667Ti0.0P3O12,16.133144,
Li0.1500B0.0250Sb0.0750Ti0.0000P0.1500O0.6000,Li3.0B0.5Sb1.5Ti0.0P3O12,16.133144,
Li0.1500B0.0333Sb0.0667Ti0.0000P0.1500O0.6000,Li3.0B0.6667Sb1.3333Ti0.0P3O12,16.133144,
Li0.1500B0.0417Sb0.0583Ti0.0000P0.1500O0.6000,Li3.0B0.8333Sb1.1667Ti0.0P3O12,16.133144,
Li0.1500B0.0500Sb0.0500Ti0.0000P0.1500O0.6000,Li3.0B1.0Sb1.0Ti0.0P3O12,16.133144,
Li0.1500B0.0583Sb0.0417Ti0.0000P0.1500O0.6000,Li3.0B1.1667Sb0.8333Ti0.0P3O12,16.133144,
Li0.1500B0.0667Sb0.0333Ti0.0000P0.1500O0.6000,Li3.0B1.3333Sb0.6667Ti0.0P3O12,16.133144,
Li0.1500B0.0750Sb0.0250Ti0.0000P0.1500O0.6000,Li3.0B1.5Sb0.5Ti0.0P3O12,16.133144,
Li0.1500B0.0833Sb0.0167Ti0.0000P0.1500O0.6000,Li3.0B1.6667Sb0.3333Ti0.0P3O12,16.150421,
Li0.1500B0.0917Sb0.0083Ti0.0000P0.1500O0.6000,Li3.0B1.8333Sb0.1667Ti0.0P3O12,15.206924,
Li0.1500B0.1000Sb0.0000Ti0.0000P0.1500O0.6000,Li3.0B2.0Sb0.0Ti0.0P3O12,15.206924,
Li0.0556B0.0000Sc0.0000Ti0.1111P0.1667O0.6667,Li1.0B0.0Sc0.0Ti2.0P3O12,7.7087817,
Li0.0642B0.0000Sc0.0092Ti0.1009P0.1651O0.6605,Li1.1667B0.0Sc0.1667Ti1.8333P3O12,8.985445,
Li0.0642B0.0092Sc0.0000Ti0.1009P0.1651O0.6605,Li1.1667B0.1667Sc0.0Ti1.8333P3O12,7.7087817,
Li0.0727B0.0000Sc0.0182Ti0.0909P0.1636O0.6545,Li1.3333B0.0Sc0.3333Ti1.6667P3O12,11.915219,
Li0.0727B0.0182Sc0.0000Ti0.0909P0.1636O0.6545,Li1.3333B0.3333Sc0.0Ti1.6667P3O12,7.7087817,
Li0.0811B0.0000Sc0.0270Ti0.0811P0.1622O0.6486,Li1.5B0.0Sc0.5Ti1.5P3O12,6.105611,
Li0.0811B0.0090Sc0.0180Ti0.0811P0.1622O0.6486,Li1.5B0.1667Sc0.3333Ti1.5P3O12,11.957242,4.8918663474407404
Li0.1429Mn0.0756B0.0168Ti0.0084P0.1513O0.6050,Li2.8333Mn1.5B0.3333Ti0.1667P3O12,9.4228525,7.902099794070398
Li0.0811B0.0270Sc0.0000Ti0.0811P0.1622O0.6486,Li1.5B0.5Sc0.0Ti1.5P3O12,7.750805,
Li0.0893B0.0000Sc0.0357Ti0.0714P0.1607O0.6429,Li1.6667B0.0Sc0.6667Ti1.3333P3O12,6.484139,
Li0.0893B0.0089Sc0.0268Ti0.0714P0.1607O0.6429,Li1.6667B0.1667Sc0.5Ti1.3333P3O12,6.484139,4.456373376696683
Li0.1053B0.0175As0.0351Ti0.0526P0.1579O0.6316,Li2.0B0.3333As0.6667Ti1.0P3O12,8.129335,7.835032873848128
Li0.0893B0.0357Sc0.0000Ti0.0714P0.1607O0.6429,Li1.6667B0.6667Sc0.0Ti1.3333P3O12,8.129335,
Li0.0973B0.0000Sc0.0442Ti0.0619P0.1593O0.6372,Li1.8333B0.0Sc0.8333Ti1.1667P3O12,6.484139,
Li0.0973B0.0177Sc0.0265Ti0.0619P0.1593O0.6372,Li1.8333B0.3333Sc0.5Ti1.1667P3O12,6.484139,6.229728472311542
Li0.0893As0.0268Ga0.0089Ti0.0714P0.1607O0.6429,Li1.6667As0.5Ga0.1667Ti1.3333P3O12,8.129335,7.80663587437155
Li0.0973B0.0442Sc0.0000Ti0.0619P0.1593O0.6372,Li1.8333B0.8333Sc0.0Ti1.1667P3O12,8.129335,
Li0.1053B0.0000Sc0.0526Ti0.0526P0.1579O0.6316,Li2.0B0.0Sc1.0Ti1.0P3O12,6.484139,
Li0.1053B0.0088Sc0.0439Ti0.0526P0.1579O0.6316,Li2.0B0.1667Sc0.8333Ti1.0P3O12,6.484139,3.9758966887983997
Li0.1053B0.0175Sc0.0351Ti0.0526P0.1579O0.6316,Li2.0B0.3333Sc0.6667Ti1.0P3O12,6.484139,5.768072015550165
Li0.0811B0.0180Co0.0090Ti0.0811P0.1622O0.6486,Li1.5B0.3333Co0.1667Ti1.5P3O12,7.750805,7.7891698655554285
Li0.0811B0.0090Ga0.0180Ti0.0811P0.1622O0.6486,Li1.5B0.1667Ga0.3333Ti1.5P3O12,7.7207913,7.715624136364467
Li0.1053B0.0263Al0.0263Ti0.0526P0.1579O0.6316,Li2.0B0.5Al0.5Ti1.0P3O12,9.533785,7.6521896511092375
Li0.1053B0.0526Sc0.0000Ti0.0526P0.1579O0.6316,Li2.0B1.0Sc0.0Ti1.0P3O12,8.129335,
Li0.1130B0.0000Sc0.0609Ti0.0435P0.1565O0.6261,Li2.1667B0.0Sc1.1667Ti0.8333P3O12,6.484139,
Li0.1130B0.0087Sc0.0522Ti0.0435P0.1565O0.6261,Li2.1667B0.1667Sc1.0Ti0.8333P3O12,6.484139,1.8366318526407057
Li0.1130B0.0261Sc0.0348Ti0.0435P0.1565O0.6261,Li2.1667B0.5Sc0.6667Ti0.8333P3O12,6.484139,1.2816381783325814
Li0.1130B0.0348Sc0.0261Ti0.0435P0.1565O0.6261,Li2.1667B0.6667Sc0.5Ti0.8333P3O12,6.484139,1.6990802081172
Li0.1130B0.0522Sc0.0087Ti0.0435P0.1565O0.6261,Li2.1667B1.0Sc0.1667Ti0.8333P3O12,9.405996,0.2859464841135867
Li0.1130B0.0609Sc0.0000Ti0.0435P0.1565O0.6261,Li2.1667B1.1667Sc0.0Ti0.8333P3O12,8.129335,
Li0.1207B0.0000Sc0.0690Ti0.0345P0.1552O0.6207,Li2.3333B0.0Sc1.3333Ti0.6667P3O12,6.484139,
Li0.1207B0.0172Sc0.0517Ti0.0345P0.1552O0.6207,Li2.3333B0.3333Sc1.0Ti0.6667P3O12,6.484139,3.200297645475805
Li0.1207B0.0259Sc0.0431Ti0.0345P0.1552O0.6207,Li2.3333B0.5Sc0.8333Ti0.6667P3O12,6.484139,1.096654482215641
Li0.1207B0.0431Sc0.0259Ti0.0345P0.1552O0.6207,Li2.3333B0.8333Sc0.5Ti0.6667P3O12,6.484139,1.7471936474743381
Li0.1207B0.0517Sc0.0172Ti0.0345P0.1552O0.6207,Li2.3333B1.0Sc0.3333Ti0.6667P3O12,12.335771,0.4538861157513954
Li0.1207B0.0690Sc0.0000Ti0.0345P0.1552O0.6207,Li2.3333B1.3333Sc0.0Ti0.6667P3O12,8.129335,
Li0.1282B0.0000Sc0.0769Ti0.0256P0.1538O0.6154,Li2.5B0.0Sc1.5Ti0.5P3O12,6.484139,
Li0.1282B0.0085Sc0.0684Ti0.0256P0.1538O0.6154,Li2.5B0.1667Sc1.3333Ti0.5P3O12,6.484139,2.225063916984084
Li0.1282B0.0171Sc0.0598Ti0.0256P0.1538O0.6154,Li2.5B0.3333Sc1.1667Ti0.5P3O12,6.484139,3.5783420337348164
Li0.1282B0.0256Sc0.0513Ti0.0256P0.1538O0.6154,Li2.5B0.5Sc1.0Ti0.5P3O12,6.484139,4.516359393339403
Li0.1282B0.0342Sc0.0427Ti0.0256P0.1538O0.6154,Li2.5B0.6667Sc0.8333Ti0.5P3O12,6.484139,1.162613629628978
Li0.1282B0.0427Sc0.0342Ti0.0256P0.1538O0.6154,Li2.5B0.8333Sc0.6667Ti0.5P3O12,6.484139,1.4204829262182896
Li0.1282B0.0513Sc0.0256Ti0.0256P0.1538O0.6154,Li2.5B1.0Sc0.5Ti0.5P3O12,6.484139,0.5875568353454327
Li0.1282B0.0598Sc0.0171Ti0.0256P0.1538O0.6154,Li2.5B1.1667Sc0.3333Ti0.5P3O12,12.335771,0.5050488400534234
Li0.1282B0.0684Sc0.0085Ti0.0256P0.1538O0.6154,Li2.5B1.3333Sc0.1667Ti0.5P3O12,9.405996,0.35402962250187414
Li0.1282B0.0769Sc0.0000Ti0.0256P0.1538O0.6154,Li2.5B1.5Sc0.0Ti0.5P3O12,8.129335,
Li0.1356B0.0000Sc0.0847Ti0.0169P0.1525O0.6102,Li2.6667B0.0Sc1.6667Ti0.3333P3O12,6.484139,
Li0.1356B0.0085Sc0.0763Ti0.0169P0.1525O0.6102,Li2.6667B0.1667Sc1.5Ti0.3333P3O12,6.484139,2.7076848437083725
Li0.1356B0.0254Sc0.0593Ti0.0169P0.1525O0.6102,Li2.6667B0.5Sc1.1667Ti0.3333P3O12,6.484139,5.327832699555925
Li0.1356B0.0339Sc0.0508Ti0.0169P0.1525O0.6102,Li2.6667B0.6667Sc1.0Ti0.3333P3O12,6.484139,6.109920198903915
Li0.1356B0.0508Sc0.0339Ti0.0169P0.1525O0.6102,Li2.6667B1.0Sc0.6667Ti0.3333P3O12,6.484139,0.7381704775530614
Li0.1356B0.0593Sc0.0254Ti0.0169P0.1525O0.6102,Li2.6667B1.1667Sc0.5Ti0.3333P3O12,6.484139,0.6740049886823404
Li0.1356B0.0763Sc0.0085Ti0.0169P0.1525O0.6102,Li2.6667B1.5Sc0.1667Ti0.3333P3O12,9.405996,0.4130435873756943
Li0.1356B0.0847Sc0.0000Ti0.0169P0.1525O0.6102,Li2.6667B1.6667Sc0.0Ti0.3333P3O12,8.129335,
Li0.1429B0.0000Sc0.0924Ti0.0084P0.1513O0.6050,Li2.8333B0.0Sc1.8333Ti0.1667P3O12,10.380352,
Li0.1429B0.0168Sc0.0756Ti0.0084P0.1513O0.6050,Li2.8333B0.3333Sc1.5Ti0.1667P3O12,10.215678,5.692757642410715
Li0.1429B0.0168Fe0.0756Ti0.0084P0.1513O0.6050,Li2.8333B0.3333Fe1.5Ti0.1667P3O12,10.772052,7.649707315775789
Li0.1429Fe0.0756B0.0168Ti0.0084P0.1513O0.6050,Li2.8333Fe1.5B0.3333Ti0.1667P3O12,10.772052,7.649707315775789
Li0.1429B0.0504Sc0.0420Ti0.0084P0.1513O0.6050,Li2.8333B1.0Sc0.8333Ti0.1667P3O12,10.215678,1.0191118816879845
Li0.1429B0.0672Sc0.0252Ti0.0084P0.1513O0.6050,Li2.8333B1.3333Sc0.5Ti0.1667P3O12,10.215678,0.8673388323780645
Li0.1429B0.0756Sc0.0168Ti0.0084P0.1513O0.6050,Li2.8333B1.5Sc0.3333Ti0.1667P3O12,16.067297,0.7503529563933868
Li0.1429B0.0924Sc0.0000Ti0.0084P0.1513O0.6050,Li2.8333B1.8333Sc0.0Ti0.1667P3O12,11.860868,
Li0.1500B0.0000Sc0.1000Ti0.0000P0.1500O0.6000,Li3.0B0.0Sc2.0Ti0.0P3O12,11.964293,
Li0.1500B0.0083Sc0.0917Ti0.0000P0.1500O0.6000,Li3.0B0.1667Sc1.8333Ti0.0P3O12,11.964293,
Li0.1500B0.0167Sc0.0833Ti0.0000P0.1500O0.6000,Li3.0B0.3333Sc1.6667Ti0.0P3O12,11.799619,
Li0.1500B0.0250Sc0.0750Ti0.0000P0.1500O0.6000,Li3.0B0.5Sc1.5Ti0.0P3O12,11.799619,
Li0.1500B0.0333Sc0.0667Ti0.0000P0.1500O0.6000,Li3.0B0.6667Sc1.3333Ti0.0P3O12,11.799619,
Li0.1500B0.0417Sc0.0583Ti0.0000P0.1500O0.6000,Li3.0B0.8333Sc1.1667Ti0.0P3O12,11.799619,
Li0.1500B0.0500Sc0.0500Ti0.0000P0.1500O0.6000,Li3.0B1.0Sc1.0Ti0.0P3O12,11.799619,
Li0.1500B0.0583Sc0.0417Ti0.0000P0.1500O0.6000,Li3.0B1.1667Sc0.8333Ti0.0P3O12,11.799619,
Li0.1500B0.0667Sc0.0333Ti0.0000P0.1500O0.6000,Li3.0B1.3333Sc0.6667Ti0.0P3O12,11.799619,
Li0.1500B0.0750Sc0.0250Ti0.0000P0.1500O0.6000,Li3.0B1.5Sc0.5Ti0.0P3O12,11.799619,
Li0.1500B0.0833Sc0.0167Ti0.0000P0.1500O0.6000,Li3.0B1.6667Sc0.3333Ti0.0P3O12,17.65124,
Li0.1500B0.0917Sc0.0083Ti0.0000P0.1500O0.6000,Li3.0B1.8333Sc0.1667Ti0.0P3O12,15.814043,
Li0.1500B0.1000Sc0.0000Ti0.0000P0.1500O0.6000,Li3.0B2.0Sc0.0Ti0.0P3O12,15.206924,
Li0.0556B0.0000Y0.0000Ti0.1111P0.1667O0.6667,Li1.0B0.0Y0.0Ti2.0P3O12,7.7087817,
Li0.0642B0.0000Y0.0092Ti0.1009P0.1651O0.6605,Li1.1667B0.0Y0.1667Ti1.8333P3O12,7.7087817,
Li0.0642B0.0092Y0.0000Ti0.1009P0.1651O0.6605,Li1.1667B0.1667Y0.0Ti1.8333P3O12,7.7087817,
Li0.0727B0.0000Y0.0182Ti0.0909P0.1636O0.6545,Li1.3333B0.0Y0.3333Ti1.6667P3O12,7.8326178,
Li0.0727B0.0182Y0.0000Ti0.0909P0.1636O0.6545,Li1.3333B0.3333Y0.0Ti1.6667P3O12,7.7087817,
Li0.0811B0.0000Y0.0270Ti0.0811P0.1622O0.6486,Li1.5B0.0Y0.5Ti1.5P3O12,7.874641,
Li0.0811B0.0090Y0.0180Ti0.0811P0.1622O0.6486,Li1.5B0.1667Y0.3333Ti1.5P3O12,7.874641,3.8069057776886193
Li0.0811B0.0180Y0.0090Ti0.0811P0.1622O0.6486,Li1.5B0.3333Y0.1667Ti1.5P3O12,7.750805,6.324332022785999
Li0.0811B0.0270Y0.0000Ti0.0811P0.1622O0.6486,Li1.5B0.5Y0.0Ti1.5P3O12,7.750805,
Li0.0893B0.0000Y0.0357Ti0.0714P0.1607O0.6429,Li1.6667B0.0Y0.6667Ti1.3333P3O12,8.253172,
Li0.0893B0.0089Y0.0268Ti0.0714P0.1607O0.6429,Li1.6667B0.1667Y0.5Ti1.3333P3O12,8.253172,3.5003578371918103
Li0.0973B0.0177In0.0265Ti0.0619P0.1593O0.6372,Li1.8333B0.3333In0.5Ti1.1667P3O12,8.690509,7.605901958947007
Li0.0893B0.0357Y0.0000Ti0.0714P0.1607O0.6429,Li1.6667B0.6667Y0.0Ti1.3333P3O12,8.129335,
Li0.0973B0.0000Y0.0442Ti0.0619P0.1593O0.6372,Li1.8333B0.0Y0.8333Ti1.1667P3O12,8.253172,
Li0.0973B0.0177Y0.0265Ti0.0619P0.1593O0.6372,Li1.8333B0.3333Y0.5Ti1.1667P3O12,8.253172,5.189101695040208
Li0.0973B0.0265Y0.0177Ti0.0619P0.1593O0.6372,Li1.8333B0.5Y0.3333Ti1.1667P3O12,8.253172,6.6802192408832965
Li0.0973B0.0442Y0.0000Ti0.0619P0.1593O0.6372,Li1.8333B0.8333Y0.0Ti1.1667P3O12,8.129335,
Li0.1053B0.0000Y0.0526Ti0.0526P0.1579O0.6316,Li2.0B0.0Y1.0Ti1.0P3O12,8.253172,
Li0.1053B0.0088Y0.0439Ti0.0526P0.1579O0.6316,Li2.0B0.1667Y0.8333Ti1.0P3O12,8.253172,3.128681311346409
Li0.1053B0.0175Y0.0351Ti0.0526P0.1579O0.6316,Li2.0B0.3333Y0.6667Ti1.0P3O12,8.253172,4.913689176496217
Li0.1053B0.0263Y0.0263Ti0.0526P0.1579O0.6316,Li2.0B0.5Y0.5Ti1.0P3O12,8.253172,6.174404176591493
Li0.0893B0.0268Y0.0089Ti0.0714P0.1607O0.6429,Li1.6667B0.5Y0.1667Ti1.3333P3O12,8.129335,7.588610091111811
Li0.0973B0.0265Co0.0177Ti0.0619P0.1593O0.6372,Li1.8333B0.5Co0.3333Ti1.1667P3O12,8.129335,7.564178485984015
Li0.1053B0.0526Y0.0000Ti0.0526P0.1579O0.6316,Li2.0B1.0Y0.0Ti1.0P3O12,8.129335,
Li0.1130B0.0000Y0.0609Ti0.0435P0.1565O0.6261,Li2.1667B0.0Y1.1667Ti0.8333P3O12,7.013641,
Li0.1130B0.0087Y0.0522Ti0.0435P0.1565O0.6261,Li2.1667B0.1667Y1.0Ti0.8333P3O12,8.253172,1.3054567014584144
Li0.1130B0.0261Y0.0348Ti0.0435P0.1565O0.6261,Li2.1667B0.5Y0.6667Ti0.8333P3O12,8.253172,0.2618313705265528
Li0.1130B0.0348Y0.0261Ti0.0435P0.1565O0.6261,Li2.1667B0.6667Y0.5Ti0.8333P3O12,8.253172,0.3731297155087088
Li0.1130B0.0522Y0.0087Ti0.0435P0.1565O0.6261,Li2.1667B1.0Y0.1667Ti0.8333P3O12,8.129335,0.0910408167011165
Li0.1130B0.0609Y0.0000Ti0.0435P0.1565O0.6261,Li2.1667B1.1667Y0.0Ti0.8333P3O12,8.129335,
Li0.1207B0.0000Y0.0690Ti0.0345P0.1552O0.6207,Li2.3333B0.0Y1.3333Ti0.6667P3O12,7.013641,
Li0.1207B0.0172Y0.0517Ti0.0345P0.1552O0.6207,Li2.3333B0.3333Y1.0Ti0.6667P3O12,8.253172,2.2480399146526295
Li0.1207B0.0259Y0.0431Ti0.0345P0.1552O0.6207,Li2.3333B0.5Y0.8333Ti0.6667P3O12,8.253172,0.20451670541164754
Li0.1207B0.0431Y0.0259Ti0.0345P0.1552O0.6207,Li2.3333B0.8333Y0.5Ti0.6667P3O12,8.253172,0.3807522356081285
Li0.1207B0.0517Y0.0172Ti0.0345P0.1552O0.6207,Li2.3333B1.0Y0.3333Ti0.6667P3O12,8.253172,0.109871780898517
Li0.1207B0.0690Y0.0000Ti0.0345P0.1552O0.6207,Li2.3333B1.3333Y0.0Ti0.6667P3O12,8.129335,
Li0.1282B0.0000Y0.0769Ti0.0256P0.1538O0.6154,Li2.5B0.0Y1.5Ti0.5P3O12,7.013641,
Li0.1282B0.0085Y0.0684Ti0.0256P0.1538O0.6154,Li2.5B0.1667Y1.3333Ti0.5P3O12,7.013641,1.6145595433610305
Li0.1282B0.0171Y0.0598Ti0.0256P0.1538O0.6154,Li2.5B0.3333Y1.1667Ti0.5P3O12,7.0560336,2.5403769702812657
Li0.1282B0.0256Y0.0513Ti0.0256P0.1538O0.6154,Li2.5B0.5Y1.0Ti0.5P3O12,8.253172,3.2042953238211913
Li0.1282B0.0342Y0.0427Ti0.0256P0.1538O0.6154,Li2.5B0.6667Y0.8333Ti0.5P3O12,8.253172,0.2173641939406692
Li0.1282B0.0427Y0.0342Ti0.0256P0.1538O0.6154,Li2.5B0.8333Y0.6667Ti0.5P3O12,8.253172,0.28228737940272985
Li0.1282B0.0513Y0.0256Ti0.0256P0.1538O0.6154,Li2.5B1.0Y0.5Ti0.5P3O12,8.253172,0.12571357069141156
Li0.1282B0.0598Y0.0171Ti0.0256P0.1538O0.6154,Li2.5B1.1667Y0.3333Ti0.5P3O12,8.253172,0.11624815183249028
Li0.1282B0.0684Y0.0085Ti0.0256P0.1538O0.6154,Li2.5B1.3333Y0.1667Ti0.5P3O12,8.129335,0.10334985770147262
Li0.1282B0.0769Y0.0000Ti0.0256P0.1538O0.6154,Li2.5B1.5Y0.0Ti0.5P3O12,8.129335,
Li0.1356B0.0000Y0.0847Ti0.0169P0.1525O0.6102,Li2.6667B0.0Y1.6667Ti0.3333P3O12,7.013641,
Li0.1356B0.0085Y0.0763Ti0.0169P0.1525O0.6102,Li2.6667B0.1667Y1.5Ti0.3333P3O12,7.013641,1.943825110145602
Li0.1356B0.0254Y0.0593Ti0.0169P0.1525O0.6102,Li2.6667B0.5Y1.1667Ti0.3333P3O12,7.0560336,3.8471175807664393
Li0.1356B0.0339Y0.0508Ti0.0169P0.1525O0.6102,Li2.6667B0.6667Y1.0Ti0.3333P3O12,8.253172,4.453888473603542
Li0.1356B0.0508Y0.0339Ti0.0169P0.1525O0.6102,Li2.6667B1.0Y0.6667Ti0.3333P3O12,8.253172,0.14538646767069596
Li0.1356B0.0593Y0.0254Ti0.0169P0.1525O0.6102,Li2.6667B1.1667Y0.5Ti0.3333P3O12,8.253172,0.13563921072985854
Li0.1356B0.0763Y0.0085Ti0.0169P0.1525O0.6102,Li2.6667B1.5Y0.1667Ti0.3333P3O12,8.129335,0.10967893481487088
Li0.1356B0.0847Y0.0000Ti0.0169P0.1525O0.6102,Li2.6667B1.6667Y0.0Ti0.3333P3O12,8.129335,
Li0.1429B0.0000Y0.0924Ti0.0084P0.1513O0.6050,Li2.8333B0.0Y1.8333Ti0.1667P3O12,10.745177,
Li0.1429B0.0168Y0.0756Ti0.0084P0.1513O0.6050,Li2.8333B0.3333Y1.5Ti0.1667P3O12,10.745177,4.0438547601818815
Li0.1429B0.0252Y0.0672Ti0.0084P0.1513O0.6050,Li2.8333B0.5Y1.3333Ti0.1667P3O12,10.745177,5.025668169728338
Li0.1429B0.0420Y0.0504Ti0.0084P0.1513O0.6050,Li2.8333B0.8333Y1.0Ti0.1667P3O12,11.984705,6.240582702583841
Li0.1429B0.0504Y0.0420Ti0.0084P0.1513O0.6050,Li2.8333B1.0Y0.8333Ti0.1667P3O12,11.984705,0.18217328721543385
Li0.1429B0.0672Y0.0252Ti0.0084P0.1513O0.6050,Li2.8333B1.3333Y0.5Ti0.1667P3O12,11.984705,0.15718622028941967
Li0.1429B0.0756Y0.0168Ti0.0084P0.1513O0.6050,Li2.8333B1.5Y0.3333Ti0.1667P3O12,11.984705,0.1421777227874707
Li0.1429B0.0924Y0.0000Ti0.0084P0.1513O0.6050,Li2.8333B1.8333Y0.0Ti0.1667P3O12,11.860868,
Li0.1500B0.0000Y0.1000Ti0.0000P0.1500O0.6000,Li3.0B0.0Y2.0Ti0.0P3O12,14.091233,
Li0.1500B0.0083Y0.0917Ti0.0000P0.1500O0.6000,Li3.0B0.1667Y1.8333Ti0.0P3O12,14.091233,
Li0.1500B0.0167Y0.0833Ti0.0000P0.1500O0.6000,Li3.0B0.3333Y1.6667Ti0.0P3O12,14.091233,
Li0.1500B0.0250Y0.0750Ti0.0000P0.1500O0.6000,Li3.0B0.5Y1.5Ti0.0P3O12,14.091233,
Li0.1500B0.0333Y0.0667Ti0.0000P0.1500O0.6000,Li3.0B0.6667Y1.3333Ti0.0P3O12,14.091233,
Li0.1500B0.0417Y0.0583Ti0.0000P0.1500O0.6000,Li3.0B0.8333Y1.1667Ti0.0P3O12,15.330761,
Li0.1500B0.0500Y0.0500Ti0.0000P0.1500O0.6000,Li3.0B1.0Y1.0Ti0.0P3O12,15.330761,
Li0.1500B0.0583Y0.0417Ti0.0000P0.1500O0.6000,Li3.0B1.1667Y0.8333Ti0.0P3O12,15.330761,
Li0.1500B0.0667Y0.0333Ti0.0000P0.1500O0.6000,Li3.0B1.3333Y0.6667Ti0.0P3O12,15.330761,
Li0.1500B0.0750Y0.0250Ti0.0000P0.1500O0.6000,Li3.0B1.5Y0.5Ti0.0P3O12,15.330761,
Li0.1500B0.0833Y0.0167Ti0.0000P0.1500O0.6000,Li3.0B1.6667Y0.3333Ti0.0P3O12,15.330761,
Li0.1500B0.0917Y0.0083Ti0.0000P0.1500O0.6000,Li3.0B1.8333Y0.1667Ti0.0P3O12,15.206924,
Li0.1500B0.1000Y0.0000Ti0.0000P0.1500O0.6000,Li3.0B2.0Y0.0Ti0.0P3O12,15.206924,
Li0.0556B0.0000Hf0.0000Ti0.1111P0.1667O0.6667,Li1.0B0.0Hf0.0Ti2.0P3O12,7.7087817,
Li0.0642B0.0000Hf0.0092Ti0.1009P0.1651O0.6605,Li1.1667B0.0Hf0.1667Ti1.8333P3O12,7.7087817,
Li0.0642B0.0092Hf0.0000Ti0.1009P0.1651O0.6605,Li1.1667B0.1667Hf0.0Ti1.8333P3O12,7.7087817,
Li0.0727B0.0000Hf0.0182Ti0.0909P0.1636O0.6545,Li1.3333B0.0Hf0.3333Ti1.6667P3O12,7.7087817,
Li0.0727B0.0182Hf0.0000Ti0.0909P0.1636O0.6545,Li1.3333B0.3333Hf0.0Ti1.6667P3O12,7.7087817,
Li0.0811B0.0000Hf0.0270Ti0.0811P0.1622O0.6486,Li1.5B0.0Hf0.5Ti1.5P3O12,7.750805,
Li0.0811B0.0090Hf0.0180Ti0.0811P0.1622O0.6486,Li1.5B0.1667Hf0.3333Ti1.5P3O12,7.750805,0.5379149393753839
Li0.0811B0.0180Hf0.0090Ti0.0811P0.1622O0.6486,Li1.5B0.3333Hf0.1667Ti1.5P3O12,7.750805,1.1899308057904006
Li0.0811B0.0270Hf0.0000Ti0.0811P0.1622O0.6486,Li1.5B0.5Hf0.0Ti1.5P3O12,7.750805,
Li0.0893B0.0000Hf0.0357Ti0.0714P0.1607O0.6429,Li1.6667B0.0Hf0.6667Ti1.3333P3O12,8.1233835,
Li0.0893B0.0089Hf0.0268Ti0.0714P0.1607O0.6429,Li1.6667B0.1667Hf0.5Ti1.3333P3O12,8.129335,0.4486253818565823
Li0.0893B0.0268Hf0.0089Ti0.0714P0.1607O0.6429,Li1.6667B0.5Hf0.1667Ti1.3333P3O12,8.129335,1.515611901643402
Li0.0893B0.0357Hf0.0000Ti0.0714P0.1607O0.6429,Li1.6667B0.6667Hf0.0Ti1.3333P3O12,8.129335,
Li0.0973B0.0000Hf0.0442Ti0.0619P0.1593O0.6372,Li1.8333B0.0Hf0.8333Ti1.1667P3O12,8.1233835,
Li0.0973B0.0177Hf0.0265Ti0.0619P0.1593O0.6372,Li1.8333B0.3333Hf0.5Ti1.1667P3O12,8.129335,0.7727531445403971
Li0.0973B0.0265Hf0.0177Ti0.0619P0.1593O0.6372,Li1.8333B0.5Hf0.3333Ti1.1667P3O12,8.129335,1.1799067265142869
Li0.0973B0.0442Hf0.0000Ti0.0619P0.1593O0.6372,Li1.8333B0.8333Hf0.0Ti1.1667P3O12,8.129335,