formula,original_formula,thermal_expansion,li ion conductivity
Li0.1282Mn0.0684Sc0.0085Ti0.0256P0.1538O0.6154,Li2.5Mn1.3333Sc0.1667Ti0.5P3O12,8.821029,0.3044331195836917
Li0.1282Mn0.0769Sc0.0000Ti0.0256P0.1538O0.6154,Li2.5Mn1.5Sc0.0Ti0.5P3O12,7.5443654,
Li0.1356Mn0.0000Sc0.0847Ti0.0169P0.1525O0.6102,Li2.6667Mn0.0Sc1.6667Ti0.3333P3O12,6.484139,
Li0.1356Mn0.0085Sc0.0763Ti0.0169P0.1525O0.6102,Li2.6667Mn0.1667Sc1.5Ti0.3333P3O12,6.484139,0.13060810701535405
Li0.1356Mn0.0254Sc0.0593Ti0.0169P0.1525O0.6102,Li2.6667Mn0.5Sc1.1667Ti0.3333P3O12,6.484139,0.23049036677872958
Li0.1356Mn0.0339Sc0.0508Ti0.0169P0.1525O0.6102,Li2.6667Mn0.6667Sc1.0Ti0.3333P3O12,6.484139,0.2571694825362363
Li0.1356Mn0.0508Sc0.0339Ti0.0169P0.1525O0.6102,Li2.6667Mn1.0Sc0.6667Ti0.3333P3O12,5.8991714,0.6579793606877944
Li0.1356Mn0.0593Sc0.0254Ti0.0169P0.1525O0.6102,Li2.6667Mn1.1667Sc0.5Ti0.3333P3O12,5.8991714,0.5840161997912245
Li0.1356Mn0.0763Sc0.0085Ti0.0169P0.1525O0.6102,Li2.6667Mn1.5Sc0.1667Ti0.3333P3O12,8.821029,0.34294214586303
Li0.1356Mn0.0847Sc0.0000Ti0.0169P0.1525O0.6102,Li2.6667Mn1.6667Sc0.0Ti0.3333P3O12,7.480082,
Li0.1429Mn0.0000Sc0.0924Ti0.0084P0.1513O0.6050,Li2.8333Mn0.0Sc1.8333Ti0.1667P3O12,10.380352,
Li0.1429Mn0.0168Sc0.0756Ti0.0084P0.1513O0.6050,Li2.8333Mn0.3333Sc1.5Ti0.1667P3O12,10.215678,0.2418506762069489
Li0.1429Mn0.0252Sc0.0672Ti0.0084P0.1513O0.6050,Li2.8333Mn0.5Sc1.3333Ti0.1667P3O12,10.215678,0.28141717236317015
Li0.1429Mn0.0420Sc0.0504Ti0.0084P0.1513O0.6050,Li2.8333Mn0.8333Sc1.0Ti0.1667P3O12,7.412372,0.3339477648280066
Li0.1429Mn0.0504Sc0.0420Ti0.0084P0.1513O0.6050,Li2.8333Mn1.0Sc0.8333Ti0.1667P3O12,7.777658,0.8904636466392505
Li0.1429Mn0.0672Sc0.0252Ti0.0084P0.1513O0.6050,Li2.8333Mn1.3333Sc0.5Ti0.1667P3O12,7.777658,0.750401977761089
Li0.1429Mn0.0756Sc0.0168Ti0.0084P0.1513O0.6050,Li2.8333Mn1.5Sc0.3333Ti0.1667P3O12,13.629285,0.623218793145386
Li0.1429Mn0.0924Sc0.0000Ti0.0084P0.1513O0.6050,Li2.8333Mn1.8333Sc0.0Ti0.1667P3O12,9.358569,
Li0.1500Mn0.0000Sc0.1000Ti0.0000P0.1500O0.6000,Li3.0Mn0.0Sc2.0Ti0.0P3O12,11.964293,
Li0.1500Mn0.0083Sc0.0917Ti0.0000P0.1500O0.6000,Li3.0Mn0.1667Sc1.8333Ti0.0P3O12,11.964293,
Li0.1500Mn0.0167Sc0.0833Ti0.0000P0.1500O0.6000,Li3.0Mn0.3333Sc1.6667Ti0.0P3O12,11.799619,
Li0.1500Mn0.0250Sc0.0750Ti0.0000P0.1500O0.6000,Li3.0Mn0.5Sc1.5Ti0.0P3O12,11.799619,
Li0.1500Mn0.0333Sc0.0667Ti0.0000P0.1500O0.6000,Li3.0Mn0.6667Sc1.3333Ti0.0P3O12,11.799619,
Li0.1500Mn0.0417Sc0.0583Ti0.0000P0.1500O0.6000,Li3.0Mn0.8333Sc1.1667Ti0.0P3O12,8.996319,
Li0.1500Mn0.0500Sc0.0500Ti0.0000P0.1500O0.6000,Li3.0Mn1.0Sc1.0Ti0.0P3O12,9.361603,
Li0.1500Mn0.0583Sc0.0417Ti0.0000P0.1500O0.6000,Li3.0Mn1.1667Sc0.8333Ti0.0P3O12,9.361603,
Li0.1500Mn0.0667Sc0.0333Ti0.0000P0.1500O0.6000,Li3.0Mn1.3333Sc0.6667Ti0.0P3O12,9.361603,
Li0.1500Mn0.0750Sc0.0250Ti0.0000P0.1500O0.6000,Li3.0Mn1.5Sc0.5Ti0.0P3O12,9.361603,
Li0.1500Mn0.0833Sc0.0167Ti0.0000P0.1500O0.6000,Li3.0Mn1.6667Sc0.3333Ti0.0P3O12,15.148944,
Li0.1500Mn0.0917Sc0.0083Ti0.0000P0.1500O0.6000,Li3.0Mn1.8333Sc0.1667Ti0.0P3O12,13.311746,
Li0.1500Mn0.1000Sc0.0000Ti0.0000P0.1500O0.6000,Li3.0Mn2.0Sc0.0Ti0.0P3O12,12.704627,
Li0.0556Mn0.0000Y0.0000Ti0.1111P0.1667O0.6667,Li1.0Mn0.0Y0.0Ti2.0P3O12,7.7087817,
Li0.0642Mn0.0000Y0.0092Ti0.1009P0.1651O0.6605,Li1.1667Mn0.0Y0.1667Ti1.8333P3O12,7.7087817,
Li0.0642Mn0.0092Y0.0000Ti0.1009P0.1651O0.6605,Li1.1667Mn0.1667Y0.0Ti1.8333P3O12,7.7087817,
Li0.0727Mn0.0000Y0.0182Ti0.0909P0.1636O0.6545,Li1.3333Mn0.0Y0.3333Ti1.6667P3O12,7.8326178,
Li0.0727Mn0.0182Y0.0000Ti0.0909P0.1636O0.6545,Li1.3333Mn0.3333Y0.0Ti1.6667P3O12,7.7087817,
Li0.0811Mn0.0000Y0.0270Ti0.0811P0.1622O0.6486,Li1.5Mn0.0Y0.5Ti1.5P3O12,7.874641,
Li0.0811Mn0.0090Y0.0180Ti0.0811P0.1622O0.6486,Li1.5Mn0.1667Y0.3333Ti1.5P3O12,7.874641,0.5260507123062041
Li0.0811Mn0.0180Y0.0090Ti0.0811P0.1622O0.6486,Li1.5Mn0.3333Y0.1667Ti1.5P3O12,7.750805,0.9567794393469647
Li0.0811Mn0.0270Y0.0000Ti0.0811P0.1622O0.6486,Li1.5Mn0.5Y0.0Ti1.5P3O12,7.750805,
Li0.0893Mn0.0000Y0.0357Ti0.0714P0.1607O0.6429,Li1.6667Mn0.0Y0.6667Ti1.3333P3O12,8.253172,
Li0.0893Mn0.0089Y0.0268Ti0.0714P0.1607O0.6429,Li1.6667Mn0.1667Y0.5Ti1.3333P3O12,8.253172,0.4722025129920889
Li0.0893Mn0.0268Y0.0089Ti0.0714P0.1607O0.6429,Li1.6667Mn0.5Y0.1667Ti1.3333P3O12,8.129335,1.1526399500947517
Li0.0893Mn0.0357Y0.0000Ti0.0714P0.1607O0.6429,Li1.6667Mn0.6667Y0.0Ti1.3333P3O12,8.129335,
Li0.0973Mn0.0000Y0.0442Ti0.0619P0.1593O0.6372,Li1.8333Mn0.0Y0.8333Ti1.1667P3O12,8.253172,
Li0.0973Mn0.0177Y0.0265Ti0.0619P0.1593O0.6372,Li1.8333Mn0.3333Y0.5Ti1.1667P3O12,8.253172,0.7204309201209659
Li0.0973Mn0.0265Y0.0177Ti0.0619P0.1593O0.6372,Li1.8333Mn0.5Y0.3333Ti1.1667P3O12,8.253172,0.9795538344486789
Li0.0973Mn0.0442Y0.0000Ti0.0619P0.1593O0.6372,Li1.8333Mn0.8333Y0.0Ti1.1667P3O12,7.1790795,
Li0.1053Mn0.0000Y0.0526Ti0.0526P0.1579O0.6316,Li2.0Mn0.0Y1.0Ti1.0P3O12,8.253172,
Li0.1053Mn0.0088Y0.0439Ti0.0526P0.1579O0.6316,Li2.0Mn0.1667Y0.8333Ti1.0P3O12,8.253172,0.4247230968656636
Li0.1053Mn0.0175Y0.0351Ti0.0526P0.1579O0.6316,Li2.0Mn0.3333Y0.6667Ti1.0P3O12,8.253172,0.6706403611115732
Li0.1053Mn0.0263Y0.0263Ti0.0526P0.1579O0.6316,Li2.0Mn0.5Y0.5Ti1.0P3O12,8.253172,0.8894552400082337
Li0.1053Mn0.0351Y0.0175Ti0.0526P0.1579O0.6316,Li2.0Mn0.6667Y0.3333Ti1.0P3O12,8.253172,1.1203263224770836
Li0.1053Mn0.0439Y0.0088Ti0.0526P0.1579O0.6316,Li2.0Mn0.8333Y0.1667Ti1.0P3O12,7.1790795,1.4671300754178862
Li0.1053Mn0.0526Y0.0000Ti0.0526P0.1579O0.6316,Li2.0Mn1.0Y0.0Ti1.0P3O12,7.5443654,
Li0.1130Mn0.0000Y0.0609Ti0.0435P0.1565O0.6261,Li2.1667Mn0.0Y1.1667Ti0.8333P3O12,7.013641,
Li0.1130Mn0.0087Y0.0522Ti0.0435P0.1565O0.6261,Li2.1667Mn0.1667Y1.0Ti0.8333P3O12,8.253172,0.021715654283257377
Li0.1130Mn0.0261Y0.0348Ti0.0435P0.1565O0.6261,Li2.1667Mn0.5Y0.6667Ti0.8333P3O12,8.253172,0.24890877130679578
Li0.1130Mn0.0348Y0.0261Ti0.0435P0.1565O0.6261,Li2.1667Mn0.6667Y0.5Ti0.8333P3O12,8.253172,0.3139991359492493
Li0.1130Mn0.0522Y0.0087Ti0.0435P0.1565O0.6261,Li2.1667Mn1.0Y0.1667Ti0.8333P3O12,7.5443654,0.11234834338998873
Li0.1130Mn0.0609Y0.0000Ti0.0435P0.1565O0.6261,Li2.1667Mn1.1667Y0.0Ti0.8333P3O12,7.5443654,
Li0.1207Mn0.0000Y0.0690Ti0.0345P0.1552O0.6207,Li2.3333Mn0.0Y1.3333Ti0.6667P3O12,7.013641,
Li0.1207Mn0.0172Y0.0517Ti0.0345P0.1552O0.6207,Li2.3333Mn0.3333Y1.0Ti0.6667P3O12,8.253172,0.03655889410587734
Li0.1207Mn0.0259Y0.0431Ti0.0345P0.1552O0.6207,Li2.3333Mn0.5Y0.8333Ti0.6667P3O12,8.253172,0.2203528479903434
Li0.1207Mn0.0431Y0.0259Ti0.0345P0.1552O0.6207,Li2.3333Mn0.8333Y0.5Ti0.6667P3O12,7.3029156,0.3351809163928748
Li0.1207Mn0.0517Y0.0172Ti0.0345P0.1552O0.6207,Li2.3333Mn1.0Y0.3333Ti0.6667P3O12,7.6682014,0.13212406653257644
Li0.1207Mn0.0690Y0.0000Ti0.0345P0.1552O0.6207,Li2.3333Mn1.3333Y0.0Ti0.6667P3O12,7.5443654,
Li0.1282Mn0.0000Y0.0769Ti0.0256P0.1538O0.6154,Li2.5Mn0.0Y1.5Ti0.5P3O12,7.013641,
Li0.1282Mn0.0085Y0.0684Ti0.0256P0.1538O0.6154,Li2.5Mn0.1667Y1.3333Ti0.5P3O12,7.013641,0.029211268928400664
Li0.1282Mn0.0171Y0.0598Ti0.0256P0.1538O0.6154,Li2.5Mn0.3333Y1.1667Ti0.5P3O12,7.0560336,0.042221724245734636
Li0.1282Mn0.0256Y0.0513Ti0.0256P0.1538O0.6154,Li2.5Mn0.5Y1.0Ti0.5P3O12,8.253172,0.05122896385182637
Li0.1282Mn0.0342Y0.0427Ti0.0256P0.1538O0.6154,Li2.5Mn0.6667Y0.8333Ti0.5P3O12,8.253172,0.23264756052130736
Li0.1282Mn0.0427Y0.0342Ti0.0256P0.1538O0.6154,Li2.5Mn0.8333Y0.6667Ti0.5P3O12,7.3029156,0.27904894183926365
Li0.1282Mn0.0513Y0.0256Ti0.0256P0.1538O0.6154,Li2.5Mn1.0Y0.5Ti0.5P3O12,7.6682014,0.14243396594698476
Li0.1282Mn0.0598Y0.0171Ti0.0256P0.1538O0.6154,Li2.5Mn1.1667Y0.3333Ti0.5P3O12,7.6682014,0.13728092506503004
Li0.1282Mn0.0684Y0.0085Ti0.0256P0.1538O0.6154,Li2.5Mn1.3333Y0.1667Ti0.5P3O12,7.5443654,0.12200439481074934
Li0.1282Mn0.0769Y0.0000Ti0.0256P0.1538O0.6154,Li2.5Mn1.5Y0.0Ti0.5P3O12,7.5443654,
Li0.1356Mn0.0000Y0.0847Ti0.0169P0.1525O0.6102,Li2.6667Mn0.0Y1.6667Ti0.3333P3O12,7.013641,
Li0.1356Mn0.0085Y0.0763Ti0.0169P0.1525O0.6102,Li2.6667Mn0.1667Y1.5Ti0.3333P3O12,7.013641,0.03515237754266859
Li0.1356Mn0.0254Y0.0593Ti0.0169P0.1525O0.6102,Li2.6667Mn0.5Y1.1667Ti0.3333P3O12,7.0560336,0.059258462331806955
Li0.1356Mn0.0339Y0.0508Ti0.0169P0.1525O0.6102,Li2.6667Mn0.6667Y1.0Ti0.3333P3O12,8.253172,0.06608598492914301
Li0.1356Mn0.0508Y0.0339Ti0.0169P0.1525O0.6102,Li2.6667Mn1.0Y0.6667Ti0.3333P3O12,7.6682014,0.14999306061033713
Li0.1356Mn0.0593Y0.0254Ti0.0169P0.1525O0.6102,Li2.6667Mn1.1667Y0.5Ti0.3333P3O12,7.6682014,0.14866069197702952
Li0.1356Mn0.0763Y0.0085Ti0.0169P0.1525O0.6102,Li2.6667Mn1.5Y0.1667Ti0.3333P3O12,7.5443654,0.12971875655363918
Li0.1356Mn0.0847Y0.0000Ti0.0169P0.1525O0.6102,Li2.6667Mn1.6667Y0.0Ti0.3333P3O12,7.480082,
Li0.1429Mn0.0000Y0.0924Ti0.0084P0.1513O0.6050,Li2.8333Mn0.0Y1.8333Ti0.1667P3O12,10.745177,
Li0.1429Mn0.0168Y0.0756Ti0.0084P0.1513O0.6050,Li2.8333Mn0.3333Y1.5Ti0.1667P3O12,10.745177,0.06451191457317106
Li0.1429Mn0.0252Y0.0672Ti0.0084P0.1513O0.6050,Li2.8333Mn0.5Y1.3333Ti0.1667P3O12,10.745177,0.0754472795908759
Li0.1429Mn0.0420Y0.0504Ti0.0084P0.1513O0.6050,Li2.8333Mn0.8333Y1.0Ti0.1667P3O12,9.181405,0.09255546221727216
Li0.1429Mn0.0504Y0.0420Ti0.0084P0.1513O0.6050,Li2.8333Mn1.0Y0.8333Ti0.1667P3O12,9.54669,0.16986511911606186
Li0.1429Mn0.0672Y0.0252Ti0.0084P0.1513O0.6050,Li2.8333Mn1.3333Y0.5Ti0.1667P3O12,9.54669,0.16529657882946613
Li0.1429Mn0.0756Y0.0168Ti0.0084P0.1513O0.6050,Li2.8333Mn1.5Y0.3333Ti0.1667P3O12,9.54669,0.15632060168613923
Li0.1429Mn0.0924Y0.0000Ti0.0084P0.1513O0.6050,Li2.8333Mn1.8333Y0.0Ti0.1667P3O12,9.358569,
Li0.1500Mn0.0000Y0.1000Ti0.0000P0.1500O0.6000,Li3.0Mn0.0Y2.0Ti0.0P3O12,14.091233,
Li0.1500Mn0.0083Y0.0917Ti0.0000P0.1500O0.6000,Li3.0Mn0.1667Y1.8333Ti0.0P3O12,14.091233,
Li0.1500Mn0.0167Y0.0833Ti0.0000P0.1500O0.6000,Li3.0Mn0.3333Y1.6667Ti0.0P3O12,14.091233,
Li0.1500Mn0.0250Y0.0750Ti0.0000P0.1500O0.6000,Li3.0Mn0.5Y1.5Ti0.0P3O12,14.091233,
Li0.1500Mn0.0333Y0.0667Ti0.0000P0.1500O0.6000,Li3.0Mn0.6667Y1.3333Ti0.0P3O12,14.091233,
Li0.1500Mn0.0417Y0.0583Ti0.0000P0.1500O0.6000,Li3.0Mn0.8333Y1.1667Ti0.0P3O12,12.527462,
Li0.1500Mn0.0500Y0.0500Ti0.0000P0.1500O0.6000,Li3.0Mn1.0Y1.0Ti0.0P3O12,12.892746,
Li0.1500Mn0.0583Y0.0417Ti0.0000P0.1500O0.6000,Li3.0Mn1.1667Y0.8333Ti0.0P3O12,12.892746,
Li0.1500Mn0.0667Y0.0333Ti0.0000P0.1500O0.6000,Li3.0Mn1.3333Y0.6667Ti0.0P3O12,12.892746,
Li0.1500Mn0.0750Y0.0250Ti0.0000P0.1500O0.6000,Li3.0Mn1.5Y0.5Ti0.0P3O12,12.892746,
Li0.1500Mn0.0833Y0.0167Ti0.0000P0.1500O0.6000,Li3.0Mn1.6667Y0.3333Ti0.0P3O12,12.828463,
Li0.1500Mn0.0917Y0.0083Ti0.0000P0.1500O0.6000,Li3.0Mn1.8333Y0.1667Ti0.0P3O12,12.704627,
Li0.1500Mn0.1000Y0.0000Ti0.0000P0.1500O0.6000,Li3.0Mn2.0Y0.0Ti0.0P3O12,12.704627,
Li0.0556Mn0.0000Hf0.0000Ti0.1111P0.1667O0.6667,Li1.0Mn0.0Hf0.0Ti2.0P3O12,7.7087817,
Li0.0642Mn0.0000Hf0.0092Ti0.1009P0.1651O0.6605,Li1.1667Mn0.0Hf0.1667Ti1.8333P3O12,7.7087817,
Li0.0642Mn0.0092Hf0.0000Ti0.1009P0.1651O0.6605,Li1.1667Mn0.1667Hf0.0Ti1.8333P3O12,7.7087817,
Li0.0727Mn0.0000Hf0.0182Ti0.0909P0.1636O0.6545,Li1.3333Mn0.0Hf0.3333Ti1.6667P3O12,7.7087817,
Li0.0727Mn0.0182Hf0.0000Ti0.0909P0.1636O0.6545,Li1.3333Mn0.3333Hf0.0Ti1.6667P3O12,7.7087817,
Li0.0811Mn0.0000Hf0.0270Ti0.0811P0.1622O0.6486,Li1.5Mn0.0Hf0.5Ti1.5P3O12,7.750805,
Li0.0811Mn0.0090Hf0.0180Ti0.0811P0.1622O0.6486,Li1.5Mn0.1667Hf0.3333Ti1.5P3O12,7.750805,0.046419184026632046
Li0.0811Mn0.0180Hf0.0090Ti0.0811P0.1622O0.6486,Li1.5Mn0.3333Hf0.1667Ti1.5P3O12,7.750805,0.10927493957173642
Li0.0811Mn0.0270Hf0.0000Ti0.0811P0.1622O0.6486,Li1.5Mn0.5Hf0.0Ti1.5P3O12,7.750805,
Li0.0893Mn0.0000Hf0.0357Ti0.0714P0.1607O0.6429,Li1.6667Mn0.0Hf0.6667Ti1.3333P3O12,8.1233835,
Li0.0893Mn0.0089Hf0.0268Ti0.0714P0.1607O0.6429,Li1.6667Mn0.1667Hf0.5Ti1.3333P3O12,8.129335,0.040949887407775325
Li0.0893Mn0.0268Hf0.0089Ti0.0714P0.1607O0.6429,Li1.6667Mn0.5Hf0.1667Ti1.3333P3O12,8.129335,0.1486288669411343
Li0.0893Mn0.0357Hf0.0000Ti0.0714P0.1607O0.6429,Li1.6667Mn0.6667Hf0.0Ti1.3333P3O12,8.129335,
Li0.0973Mn0.0000Hf0.0442Ti0.0619P0.1593O0.6372,Li1.8333Mn0.0Hf0.8333Ti1.1667P3O12,8.1233835,
Li0.0973Mn0.0177Hf0.0265Ti0.0619P0.1593O0.6372,Li1.8333Mn0.3333Hf0.5Ti1.1667P3O12,8.129335,0.0686407758942754
Li0.0973Mn0.0265Hf0.0177Ti0.0619P0.1593O0.6372,Li1.8333Mn0.5Hf0.3333Ti1.1667P3O12,8.129335,0.10631268874662912
Li0.0973Mn0.0442Hf0.0000Ti0.0619P0.1593O0.6372,Li1.8333Mn0.8333Hf0.0Ti1.1667P3O12,7.1790795,
Li0.1053Mn0.0000Hf0.0526Ti0.0526P0.1579O0.6316,Li2.0Mn0.0Hf1.0Ti1.0P3O12,8.1233835,
Li0.1053Mn0.0088Hf0.0439Ti0.0526P0.1579O0.6316,Li2.0Mn0.1667Hf0.8333Ti1.0P3O12,8.1233835,0.03537745270148068
Li0.1053Mn0.0175Hf0.0351Ti0.0526P0.1579O0.6316,Li2.0Mn0.3333Hf0.6667Ti1.0P3O12,8.1233835,0.06221891364956885
Li0.1053Mn0.0263Hf0.0263Ti0.0526P0.1579O0.6316,Li2.0Mn0.5Hf0.5Ti1.0P3O12,8.129335,0.09095229602744945
Li0.1053Mn0.0351Hf0.0175Ti0.0526P0.1579O0.6316,Li2.0Mn0.6667Hf0.3333Ti1.0P3O12,8.129335,0.13249043164540777
Li0.1053Mn0.0439Hf0.0088Ti0.0526P0.1579O0.6316,Li2.0Mn0.8333Hf0.1667Ti1.0P3O12,7.1790795,0.2152701096358465
Li0.1053Mn0.0526Hf0.0000Ti0.0526P0.1579O0.6316,Li2.0Mn1.0Hf0.0Ti1.0P3O12,7.5443654,
Li0.1130Mn0.0000Hf0.0609Ti0.0435P0.1565O0.6261,Li2.1667Mn0.0Hf1.1667Ti0.8333P3O12,7.980404,
Li0.1130Mn0.0087Hf0.0522Ti0.0435P0.1565O0.6261,Li2.1667Mn0.1667Hf1.0Ti0.8333P3O12,8.1233835,0.0026464034802029476
Li0.1130Mn0.0261Hf0.0348Ti0.0435P0.1565O0.6261,Li2.1667Mn0.5Hf0.6667Ti0.8333P3O12,8.1233835,0.010125620305254138
Li0.1130Mn0.0348Hf0.0261Ti0.0435P0.1565O0.6261,Li2.1667Mn0.6667Hf0.5Ti0.8333P3O12,8.129335,0.012710013270492282
Li0.1130Mn0.0522Hf0.0087Ti0.0435P0.1565O0.6261,Li2.1667Mn1.0Hf0.1667Ti0.8333P3O12,7.5443654,0.11038610031576121
Li0.1130Mn0.0609Hf0.0000Ti0.0435P0.1565O0.6261,Li2.1667Mn1.1667Hf0.0Ti0.8333P3O12,7.5443654,
Li0.1207Mn0.0000Hf0.0690Ti0.0345P0.1552O0.6207,Li2.3333Mn0.0Hf1.3333Ti0.6667P3O12,7.980404,
Li0.1207Mn0.0172Hf0.0517Ti0.0345P0.1552O0.6207,Li2.3333Mn0.3333Hf1.0Ti0.6667P3O12,8.1233835,0.003424847719243721
Li0.1207Mn0.0259Hf0.0431Ti0.0345P0.1552O0.6207,Li2.3333Mn0.5Hf0.8333Ti0.6667P3O12,8.1233835,0.009323638338380864
Li0.1207Mn0.0431Hf0.0259Ti0.0345P0.1552O0.6207,Li2.3333Mn0.8333Hf0.5Ti0.6667P3O12,7.1790795,0.014071154610840108
Li0.1207Mn0.0517Hf0.0172Ti0.0345P0.1552O0.6207,Li2.3333Mn1.0Hf0.3333Ti0.6667P3O12,7.5443654,0.14767873412322663
Li0.1207Mn0.0690Hf0.0000Ti0.0345P0.1552O0.6207,Li2.3333Mn1.3333Hf0.0Ti0.6667P3O12,7.5443654,
Li0.1282Mn0.0000Hf0.0769Ti0.0256P0.1538O0.6154,Li2.5Mn0.0Hf1.5Ti0.5P3O12,7.980404,
Li0.1282Mn0.0085Hf0.0684Ti0.0256P0.1538O0.6154,Li2.5Mn0.1667Hf1.3333Ti0.5P3O12,7.980404,0.0031905547093985585
Li0.1282Mn0.0171Hf0.0598Ti0.0256P0.1538O0.6154,Li2.5Mn0.3333Hf1.1667Ti0.5P3O12,7.980404,0.003855930424551563
Li0.1282Mn0.0256Hf0.0513Ti0.0256P0.1538O0.6154,Li2.5Mn0.5Hf1.0Ti0.5P3O12,8.1233835,0.004302268492532405
Li0.1282Mn0.0342Hf0.0427Ti0.0256P0.1538O0.6154,Li2.5Mn0.6667Hf0.8333Ti0.5P3O12,8.1233835,0.010293582888418707
Li0.1282Mn0.0427Hf0.0342Ti0.0256P0.1538O0.6154,Li2.5Mn0.8333Hf0.6667Ti0.5P3O12,7.173127,0.012339000561730318
Li0.1282Mn0.0513Hf0.0256Ti0.0256P0.1538O0.6154,Li2.5Mn1.0Hf0.5Ti0.5P3O12,7.5443654,0.17396908448802106
Li0.1282Mn0.0598Hf0.0171Ti0.0256P0.1538O0.6154,Li2.5Mn1.1667Hf0.3333Ti0.5P3O12,7.5443654,0.15321071699859157
Li0.1282Mn0.0684Hf0.0085Ti0.0256P0.1538O0.6154,Li2.5Mn1.3333Hf0.1667Ti0.5P3O12,7.5443654,0.12091460514717688
Li0.1282Mn0.0769Hf0.0000Ti0.0256P0.1538O0.6154,Li2.5Mn1.5Hf0.0Ti0.5P3O12,7.5443654,
Li0.1356Mn0.0000Hf0.0847Ti0.0169P0.1525O0.6102,Li2.6667Mn0.0Hf1.6667Ti0.3333P3O12,7.980404,
Li0.1356Mn0.0085Hf0.0763Ti0.0169P0.1525O0.6102,Li2.6667Mn0.1667Hf1.5Ti0.3333P3O12,7.980404,0.0036404760646177236
Li0.1356Mn0.0254Hf0.0593Ti0.0169P0.1525O0.6102,Li2.6667Mn0.5Hf1.1667Ti0.3333P3O12,7.980404,0.00486779357346831
Li0.1356Mn0.0339Hf0.0508Ti0.0169P0.1525O0.6102,Li2.6667Mn0.6667Hf1.0Ti0.3333P3O12,8.1233835,0.00531051643215044
Li0.1356Mn0.0508Hf0.0339Ti0.0169P0.1525O0.6102,Li2.6667Mn1.0Hf0.6667Ti0.3333P3O12,7.538413,0.1931592956106625
Li0.1356Mn0.0593Hf0.0254Ti0.0169P0.1525O0.6102,Li2.6667Mn1.1667Hf0.5Ti0.3333P3O12,7.5443654,0.18094642246957568
Li0.1356Mn0.0763Hf0.0085Ti0.0169P0.1525O0.6102,Li2.6667Mn1.5Hf0.1667Ti0.3333P3O12,7.5443654,0.12718835928199418
Li0.1356Mn0.0847Hf0.0000Ti0.0169P0.1525O0.6102,Li2.6667Mn1.6667Hf0.0Ti0.3333P3O12,7.480082,
Li0.1429Mn0.0000Hf0.0924Ti0.0084P0.1513O0.6050,Li2.8333Mn0.0Hf1.8333Ti0.1667P3O12,9.871589,
Li0.1429Mn0.0168Hf0.0756Ti0.0084P0.1513O0.6050,Li2.8333Mn0.3333Hf1.5Ti0.1667P3O12,11.711937,0.005723577160616153
Li0.1429Mn0.0252Hf0.0672Ti0.0084P0.1513O0.6050,Li2.8333Mn0.5Hf1.3333Ti0.1667P3O12,11.711937,0.006559801790058541
Li0.1429Mn0.0420Hf0.0504Ti0.0084P0.1513O0.6050,Li2.8333Mn0.8333Hf1.0Ti0.1667P3O12,9.051617,0.008115407668281996
Li0.1429Mn0.0504Hf0.0420Ti0.0084P0.1513O0.6050,Li2.8333Mn1.0Hf0.8333Ti0.1667P3O12,9.416901,0.2095107593921774
Li0.1429Mn0.0672Hf0.0252Ti0.0084P0.1513O0.6050,Li2.8333Mn1.3333Hf0.5Ti0.1667P3O12,9.4228525,0.18957268621001713
Li0.1429Mn0.0756Hf0.0168Ti0.0084P0.1513O0.6050,Li2.8333Mn1.5Hf0.3333Ti0.1667P3O12,9.4228525,0.16841372703466687
Li0.1429Mn0.0924Hf0.0000Ti0.0084P0.1513O0.6050,Li2.8333Mn1.8333Hf0.0Ti0.1667P3O12,9.358569,
Li0.1500Mn0.0000Hf0.1000Ti0.0000P0.1500O0.6000,Li3.0Mn0.0Hf2.0Ti0.0P3O12,13.217646,
Li0.1500Mn0.0083Hf0.0917Ti0.0000P0.1500O0.6000,Li3.0Mn0.1667Hf1.8333Ti0.0P3O12,13.217646,
Li0.1500Mn0.0167Hf0.0833Ti0.0000P0.1500O0.6000,Li3.0Mn0.3333Hf1.6667Ti0.0P3O12,15.057993,
Li0.1500Mn0.0250Hf0.0750Ti0.0000P0.1500O0.6000,Li3.0Mn0.5Hf1.5Ti0.0P3O12,15.057993,
Li0.1500Mn0.0333Hf0.0667Ti0.0000P0.1500O0.6000,Li3.0Mn0.6667Hf1.3333Ti0.0P3O12,15.057993,
Li0.1500Mn0.0417Hf0.0583Ti0.0000P0.1500O0.6000,Li3.0Mn0.8333Hf1.1667Ti0.0P3O12,12.397674,
Li0.1500Mn0.0500Hf0.0500Ti0.0000P0.1500O0.6000,Li3.0Mn1.0Hf1.0Ti0.0P3O12,12.762959,
Li0.1500Mn0.0583Hf0.0417Ti0.0000P0.1500O0.6000,Li3.0Mn1.1667Hf0.8333Ti0.0P3O12,12.762959,
Li0.1500Mn0.0667Hf0.0333Ti0.0000P0.1500O0.6000,Li3.0Mn1.3333Hf0.6667Ti0.0P3O12,12.762959,
Li0.1500Mn0.0750Hf0.0250Ti0.0000P0.1500O0.6000,Li3.0Mn1.5Hf0.5Ti0.0P3O12,12.76891,
Li0.1500Mn0.0833Hf0.0167Ti0.0000P0.1500O0.6000,Li3.0Mn1.6667Hf0.3333Ti0.0P3O12,12.704627,
Li0.1500Mn0.0917Hf0.0083Ti0.0000P0.1500O0.6000,Li3.0Mn1.8333Hf0.1667Ti0.0P3O12,12.704627,
Li0.1500Mn0.1000Hf0.0000Ti0.0000P0.1500O0.6000,Li3.0Mn2.0Hf0.0Ti0.0P3O12,12.704627,
Li0.0556Mn0.0000Bi0.0000Ti0.1111P0.1667O0.6667,Li1.0Mn0.0Bi0.0Ti2.0P3O12,7.7087817,
Li0.0642Mn0.0000Bi0.0092Ti0.1009P0.1651O0.6605,Li1.1667Mn0.0Bi0.1667Ti1.8333P3O12,7.7087817,
Li0.0642Mn0.0092Bi0.0000Ti0.1009P0.1651O0.6605,Li1.1667Mn0.1667Bi0.0Ti1.8333P3O12,7.7087817,
Li0.0727Mn0.0000Bi0.0182Ti0.0909P0.1636O0.6545,Li1.3333Mn0.0Bi0.3333Ti1.6667P3O12,7.7087817,
Li0.0727Mn0.0182Bi0.0000Ti0.0909P0.1636O0.6545,Li1.3333Mn0.3333Bi0.0Ti1.6667P3O12,7.7087817,
Li0.0811Mn0.0000Bi0.0270Ti0.0811P0.1622O0.6486,Li1.5Mn0.0Bi0.5Ti1.5P3O12,7.750805,
Li0.0811Mn0.0090Bi0.0180Ti0.0811P0.1622O0.6486,Li1.5Mn0.1667Bi0.3333Ti1.5P3O12,7.750805,0.001538290726747533
Li0.0811Mn0.0180Bi0.0090Ti0.0811P0.1622O0.6486,Li1.5Mn0.3333Bi0.1667Ti1.5P3O12,7.750805,0.002284109736089771
Li0.0811Mn0.0270Bi0.0000Ti0.0811P0.1622O0.6486,Li1.5Mn0.5Bi0.0Ti1.5P3O12,7.750805,
Li0.0893Mn0.0000Bi0.0357Ti0.0714P0.1607O0.6429,Li1.6667Mn0.0Bi0.6667Ti1.3333P3O12,8.129335,
Li0.0893Mn0.0089Bi0.0268Ti0.0714P0.1607O0.6429,Li1.6667Mn0.1667Bi0.5Ti1.3333P3O12,8.129335,0.0014077428525473717
Li0.0893Mn0.0268Bi0.0089Ti0.0714P0.1607O0.6429,Li1.6667Mn0.5Bi0.1667Ti1.3333P3O12,8.129335,0.0025811245882423526
Li0.0893Mn0.0357Bi0.0000Ti0.0714P0.1607O0.6429,Li1.6667Mn0.6667Bi0.0Ti1.3333P3O12,8.129335,
Li0.0973Mn0.0000Bi0.0442Ti0.0619P0.1593O0.6372,Li1.8333Mn0.0Bi0.8333Ti1.1667P3O12,8.129335,
Li0.0973Mn0.0177Bi0.0265Ti0.0619P0.1593O0.6372,Li1.8333Mn0.3333Bi0.5Ti1.1667P3O12,8.129335,0.0017928613916003667
Li0.0973Mn0.0265Bi0.0177Ti0.0619P0.1593O0.6372,Li1.8333Mn0.5Bi0.3333Ti1.1667P3O12,8.129335,0.0021175901296616386
Li0.0973Mn0.0442Bi0.0000Ti0.0619P0.1593O0.6372,Li1.8333Mn0.8333Bi0.0Ti1.1667P3O12,7.1790795,
Li0.1053Mn0.0000Bi0.0526Ti0.0526P0.1579O0.6316,Li2.0Mn0.0Bi1.0Ti1.0P3O12,8.129335,
Li0.1053Mn0.0088Bi0.0439Ti0.0526P0.1579O0.6316,Li2.0Mn0.1667Bi0.8333Ti1.0P3O12,8.129335,0.0012452343234423096
Li0.1053Mn0.0175Bi0.0351Ti0.0526P0.1579O0.6316,Li2.0Mn0.3333Bi0.6667Ti1.0P3O12,8.129335,0.0016806460727696506
Li0.1053Mn0.0263Bi0.0263Ti0.0526P0.1579O0.6316,Li2.0Mn0.5Bi0.5Ti1.0P3O12,8.129335,0.001953478690094082