formula,original_formula,thermal_expansion,li ion conductivity
Li0.0642Cr0.0092B0.0000Ti0.1009P0.1651O0.6605,Li1.1667Cr0.1667B0.0Ti1.8333P3O12,7.7087817,
Li0.0727Cr0.0000B0.0182Ti0.0909P0.1636O0.6545,Li1.3333Cr0.0B0.3333Ti1.6667P3O12,7.7087817,
Li0.0727Cr0.0182B0.0000Ti0.0909P0.1636O0.6545,Li1.3333Cr0.3333B0.0Ti1.6667P3O12,7.7087817,
Li0.0811Cr0.0000B0.0270Ti0.0811P0.1622O0.6486,Li1.5Cr0.0B0.5Ti1.5P3O12,7.750805,
Li0.0811Cr0.0090B0.0180Ti0.0811P0.1622O0.6486,Li1.5Cr0.1667B0.3333Ti1.5P3O12,7.750805,0.5435864130506687
Li0.0811Cr0.0180B0.0090Ti0.0811P0.1622O0.6486,Li1.5Cr0.3333B0.1667Ti1.5P3O12,7.750805,1.0276040328643314
Li0.0811Cr0.0270B0.0000Ti0.0811P0.1622O0.6486,Li1.5Cr0.5B0.0Ti1.5P3O12,7.750805,
Li0.0893Cr0.0000B0.0357Ti0.0714P0.1607O0.6429,Li1.6667Cr0.0B0.6667Ti1.3333P3O12,8.129335,
Li0.0893Cr0.0089B0.0268Ti0.0714P0.1607O0.6429,Li1.6667Cr0.1667B0.5Ti1.3333P3O12,8.129335,0.5045070854747045
Li0.0893Cr0.0268B0.0089Ti0.0714P0.1607O0.6429,Li1.6667Cr0.5B0.1667Ti1.3333P3O12,8.129335,1.3583750185519659
Li0.0893Cr0.0357B0.0000Ti0.0714P0.1607O0.6429,Li1.6667Cr0.6667B0.0Ti1.3333P3O12,8.129335,
Li0.0973Cr0.0000B0.0442Ti0.0619P0.1593O0.6372,Li1.8333Cr0.0B0.8333Ti1.1667P3O12,8.129335,
Li0.0973Cr0.0177B0.0265Ti0.0619P0.1593O0.6372,Li1.8333Cr0.3333B0.5Ti1.1667P3O12,8.129335,0.8203763784583853
Li0.0973Cr0.0265B0.0177Ti0.0619P0.1593O0.6372,Li1.8333Cr0.5B0.3333Ti1.1667P3O12,8.129335,1.16663452324635
Li0.0973Cr0.0442B0.0000Ti0.0619P0.1593O0.6372,Li1.8333Cr0.8333B0.0Ti1.1667P3O12,7.845156,
Li0.1053Cr0.0000B0.0526Ti0.0526P0.1579O0.6316,Li2.0Cr0.0B1.0Ti1.0P3O12,8.129335,
Li0.1053Cr0.0088B0.0439Ti0.0526P0.1579O0.6316,Li2.0Cr0.1667B0.8333Ti1.0P3O12,8.129335,0.48545329254685793
Li0.1053Cr0.0175B0.0351Ti0.0526P0.1579O0.6316,Li2.0Cr0.3333B0.6667Ti1.0P3O12,8.129335,0.7941308946083133
Li0.1053Cr0.0263B0.0263Ti0.0526P0.1579O0.6316,Li2.0Cr0.5B0.5Ti1.0P3O12,8.129335,1.0945379497611343
Li0.1053Cr0.0351B0.0175Ti0.0526P0.1579O0.6316,Li2.0Cr0.6667B0.3333Ti1.0P3O12,8.129335,1.424430368005077
Li0.1053Cr0.0439B0.0088Ti0.0526P0.1579O0.6316,Li2.0Cr0.8333B0.1667Ti1.0P3O12,7.845156,1.8915218437716057
Li0.1053Cr0.0526B0.0000Ti0.0526P0.1579O0.6316,Li2.0Cr1.0B0.0Ti1.0P3O12,7.845156,
Li0.1130Cr0.0000B0.0609Ti0.0435P0.1565O0.6261,Li2.1667Cr0.0B1.1667Ti0.8333P3O12,8.129335,
Li0.1130Cr0.0087B0.0522Ti0.0435P0.1565O0.6261,Li2.1667Cr0.1667B1.0Ti0.8333P3O12,8.129335,0.24759417096258177
Li0.1130Cr0.0261B0.0348Ti0.0435P0.1565O0.6261,Li2.1667Cr0.5B0.6667Ti0.8333P3O12,8.129335,0.6934042353143873
Li0.1130Cr0.0348B0.0261Ti0.0435P0.1565O0.6261,Li2.1667Cr0.6667B0.5Ti0.8333P3O12,8.129335,0.8490651410697673
Li0.1130Cr0.0522B0.0087Ti0.0435P0.1565O0.6261,Li2.1667Cr1.0B0.1667Ti0.8333P3O12,7.845156,2.123992441893855
Li0.1130Cr0.0609B0.0000Ti0.0435P0.1565O0.6261,Li2.1667Cr1.1667B0.0Ti0.8333P3O12,13.286617,
Li0.1207Cr0.0000B0.0690Ti0.0345P0.1552O0.6207,Li2.3333Cr0.0B1.3333Ti0.6667P3O12,8.129335,
Li0.1207Cr0.0172B0.0517Ti0.0345P0.1552O0.6207,Li2.3333Cr0.3333B1.0Ti0.6667P3O12,8.129335,0.48560149151966914
Li0.1207Cr0.0259B0.0431Ti0.0345P0.1552O0.6207,Li2.3333Cr0.5B0.8333Ti0.6667P3O12,8.129335,0.6419110503093398
Li0.1207Cr0.0431B0.0259Ti0.0345P0.1552O0.6207,Li2.3333Cr0.8333B0.5Ti0.6667P3O12,7.845156,0.9016848234808791
Li0.1207Cr0.0517B0.0172Ti0.0345P0.1552O0.6207,Li2.3333Cr1.0B0.3333Ti0.6667P3O12,7.845156,3.685574496357373
Li0.1207Cr0.0690B0.0000Ti0.0345P0.1552O0.6207,Li2.3333Cr1.3333B0.0Ti0.6667P3O12,13.286617,
Li0.1282Cr0.0000B0.0769Ti0.0256P0.1538O0.6154,Li2.5Cr0.0B1.5Ti0.5P3O12,8.129335,
Li0.1282Cr0.0085B0.0684Ti0.0256P0.1538O0.6154,Li2.5Cr0.1667B1.3333Ti0.5P3O12,8.129335,0.28663660876899516
Li0.1282Cr0.0171B0.0598Ti0.0256P0.1538O0.6154,Li2.5Cr0.3333B1.1667Ti0.5P3O12,8.129335,0.5162752753601199
Li0.1282Cr0.0256B0.0513Ti0.0256P0.1538O0.6154,Li2.5Cr0.5B1.0Ti0.5P3O12,8.129335,0.732418333853241
Li0.1282Cr0.0342B0.0427Ti0.0256P0.1538O0.6154,Li2.5Cr0.6667B0.8333Ti0.5P3O12,8.129335,0.6924053310686772
Li0.1282Cr0.0427B0.0342Ti0.0256P0.1538O0.6154,Li2.5Cr0.8333B0.6667Ti0.5P3O12,7.845156,0.8067739578175804
Li0.1282Cr0.0513B0.0256Ti0.0256P0.1538O0.6154,Li2.5Cr1.0B0.5Ti0.5P3O12,7.845156,5.277416954864564
Li0.1282Cr0.0598B0.0171Ti0.0256P0.1538O0.6154,Li2.5Cr1.1667B0.3333Ti0.5P3O12,7.845156,4.231705033041816
Li0.1282Cr0.0684B0.0085Ti0.0256P0.1538O0.6154,Li2.5Cr1.3333B0.1667Ti0.5P3O12,13.286617,2.7005592182914313
Li0.1282Cr0.0769B0.0000Ti0.0256P0.1538O0.6154,Li2.5Cr1.5B0.0Ti0.5P3O12,13.286617,
Li0.1356Cr0.0000B0.0847Ti0.0169P0.1525O0.6102,Li2.6667Cr0.0B1.6667Ti0.3333P3O12,8.129335,
Li0.1356Cr0.0085B0.0763Ti0.0169P0.1525O0.6102,Li2.6667Cr0.1667B1.5Ti0.3333P3O12,8.129335,0.32439404564491364
Li0.1356Cr0.0254B0.0593Ti0.0169P0.1525O0.6102,Li2.6667Cr0.5B1.1667Ti0.3333P3O12,8.129335,0.765159734861778
Li0.1356Cr0.0339B0.0508Ti0.0169P0.1525O0.6102,Li2.6667Cr0.6667B1.0Ti0.3333P3O12,8.129335,0.9246288009398249
Li0.0893B0.0089Ga0.0268Ti0.0714P0.1607O0.6429,Li1.6667B0.1667Ga0.5Ti1.3333P3O12,8.099321,7.332398467965487
Li0.1356Cr0.0593B0.0254Ti0.0169P0.1525O0.6102,Li2.6667Cr1.1667B0.5Ti0.3333P3O12,7.845156,6.321968083931295
Li0.1356Cr0.0763B0.0085Ti0.0169P0.1525O0.6102,Li2.6667Cr1.5B0.1667Ti0.3333P3O12,13.286617,3.299400235013848
Li0.1356Cr0.0847B0.0000Ti0.0169P0.1525O0.6102,Li2.6667Cr1.6667B0.0Ti0.3333P3O12,13.699678,
Li0.1429Cr0.0000B0.0924Ti0.0084P0.1513O0.6050,Li2.8333Cr0.0B1.8333Ti0.1667P3O12,11.860868,
Li0.1429Cr0.0168B0.0756Ti0.0084P0.1513O0.6050,Li2.8333Cr0.3333B1.5Ti0.1667P3O12,11.860868,0.6268976285818992
Li0.1429Cr0.0252B0.0672Ti0.0084P0.1513O0.6050,Li2.8333Cr0.5B1.3333Ti0.1667P3O12,11.860868,0.8168360302029051
Li0.1429Cr0.0420B0.0504Ti0.0084P0.1513O0.6050,Li2.8333Cr0.8333B1.0Ti0.1667P3O12,11.576692,1.1343818363526894
Li0.0893Al0.0268Ga0.0089Ti0.0714P0.1607O0.6429,Li1.6667Al0.5Ga0.1667Ti1.3333P3O12,9.533785,7.325260995436281
Li0.1053As0.0351Ga0.0175Ti0.0526P0.1579O0.6316,Li2.0As0.6667Ga0.3333Ti1.0P3O12,8.099321,7.295034229241925
Li0.1429Cr0.0756B0.0168Ti0.0084P0.1513O0.6050,Li2.8333Cr1.5B0.3333Ti0.1667P3O12,17.018145,6.64596676288638
Li0.1429Cr0.0924B0.0000Ti0.0084P0.1513O0.6050,Li2.8333Cr1.8333B0.0Ti0.1667P3O12,17.431204,
Li0.1500Cr0.0000B0.1000Ti0.0000P0.1500O0.6000,Li3.0Cr0.0B2.0Ti0.0P3O12,15.206924,
Li0.1500Cr0.0083B0.0917Ti0.0000P0.1500O0.6000,Li3.0Cr0.1667B1.8333Ti0.0P3O12,15.206924,
Li0.1500Cr0.0167B0.0833Ti0.0000P0.1500O0.6000,Li3.0Cr0.3333B1.6667Ti0.0P3O12,15.206924,
Li0.1500Cr0.0250B0.0750Ti0.0000P0.1500O0.6000,Li3.0Cr0.5B1.5Ti0.0P3O12,15.206924,
Li0.1500Cr0.0333B0.0667Ti0.0000P0.1500O0.6000,Li3.0Cr0.6667B1.3333Ti0.0P3O12,15.206924,
Li0.1500Cr0.0417B0.0583Ti0.0000P0.1500O0.6000,Li3.0Cr0.8333B1.1667Ti0.0P3O12,14.922748,
Li0.1500Cr0.0500B0.0500Ti0.0000P0.1500O0.6000,Li3.0Cr1.0B1.0Ti0.0P3O12,14.922748,
Li0.1500Cr0.0583B0.0417Ti0.0000P0.1500O0.6000,Li3.0Cr1.1667B0.8333Ti0.0P3O12,14.922748,
Li0.1500Cr0.0667B0.0333Ti0.0000P0.1500O0.6000,Li3.0Cr1.3333B0.6667Ti0.0P3O12,17.490267,
Li0.1500Cr0.0750B0.0250Ti0.0000P0.1500O0.6000,Li3.0Cr1.5B0.5Ti0.0P3O12,17.490267,
Li0.1500Cr0.0833B0.0167Ti0.0000P0.1500O0.6000,Li3.0Cr1.6667B0.3333Ti0.0P3O12,17.903326,
Li0.1500Cr0.0917B0.0083Ti0.0000P0.1500O0.6000,Li3.0Cr1.8333B0.1667Ti0.0P3O12,17.903326,
Li0.1500Cr0.1000B0.0000Ti0.0000P0.1500O0.6000,Li3.0Cr2.0B0.0Ti0.0P3O12,17.903326,
Li0.0556Cr0.0000Co0.0000Ti0.1111P0.1667O0.6667,Li1.0Cr0.0Co0.0Ti2.0P3O12,7.7087817,
Li0.0642Cr0.0000Co0.0092Ti0.1009P0.1651O0.6605,Li1.1667Cr0.0Co0.1667Ti1.8333P3O12,7.7087817,
Li0.0642Cr0.0092Co0.0000Ti0.1009P0.1651O0.6605,Li1.1667Cr0.1667Co0.0Ti1.8333P3O12,7.7087817,
Li0.0727Cr0.0000Co0.0182Ti0.0909P0.1636O0.6545,Li1.3333Cr0.0Co0.3333Ti1.6667P3O12,7.7087817,
Li0.0727Cr0.0182Co0.0000Ti0.0909P0.1636O0.6545,Li1.3333Cr0.3333Co0.0Ti1.6667P3O12,7.7087817,
Li0.0811Cr0.0000Co0.0270Ti0.0811P0.1622O0.6486,Li1.5Cr0.0Co0.5Ti1.5P3O12,7.750805,
Li0.0811Cr0.0090Co0.0180Ti0.0811P0.1622O0.6486,Li1.5Cr0.1667Co0.3333Ti1.5P3O12,7.750805,0.08547760418315073
Li0.0811Cr0.0180Co0.0090Ti0.0811P0.1622O0.6486,Li1.5Cr0.3333Co0.1667Ti1.5P3O12,7.750805,0.17284187304201054
Li0.0811Cr0.0270Co0.0000Ti0.0811P0.1622O0.6486,Li1.5Cr0.5Co0.0Ti1.5P3O12,7.750805,
Li0.0893Cr0.0000Co0.0357Ti0.0714P0.1607O0.6429,Li1.6667Cr0.0Co0.6667Ti1.3333P3O12,8.129335,
Li0.0893Cr0.0089Co0.0268Ti0.0714P0.1607O0.6429,Li1.6667Cr0.1667Co0.5Ti1.3333P3O12,8.129335,0.07568008131068321
Li0.0893Cr0.0268Co0.0089Ti0.0714P0.1607O0.6429,Li1.6667Cr0.5Co0.1667Ti1.3333P3O12,8.129335,0.2341816442663497
Li0.0893Cr0.0357Co0.0000Ti0.0714P0.1607O0.6429,Li1.6667Cr0.6667Co0.0Ti1.3333P3O12,8.129335,
Li0.0973Cr0.0000Co0.0442Ti0.0619P0.1593O0.6372,Li1.8333Cr0.0Co0.8333Ti1.1667P3O12,8.147218,
Li0.0973Cr0.0177Co0.0265Ti0.0619P0.1593O0.6372,Li1.8333Cr0.3333Co0.5Ti1.1667P3O12,8.129335,0.14394993396908218
Li0.0973Cr0.0265Co0.0177Ti0.0619P0.1593O0.6372,Li1.8333Cr0.5Co0.3333Ti1.1667P3O12,8.129335,0.20435958025940884
Li0.0973Cr0.0442Co0.0000Ti0.0619P0.1593O0.6372,Li1.8333Cr0.8333Co0.0Ti1.1667P3O12,7.845156,
Li0.1053Cr0.0000Co0.0526Ti0.0526P0.1579O0.6316,Li2.0Cr0.0Co1.0Ti1.0P3O12,8.147218,
Li0.1053Cr0.0088Co0.0439Ti0.0526P0.1579O0.6316,Li2.0Cr0.1667Co0.8333Ti1.0P3O12,8.147218,0.07055300418864818
Li0.1053Cr0.0175Co0.0351Ti0.0526P0.1579O0.6316,Li2.0Cr0.3333Co0.6667Ti1.0P3O12,8.129335,0.13927356262129348
Li0.1053Cr0.0263Co0.0263Ti0.0526P0.1579O0.6316,Li2.0Cr0.5Co0.5Ti1.0P3O12,8.129335,0.20200393988074847
Li0.1053Cr0.0351Co0.0175Ti0.0526P0.1579O0.6316,Li2.0Cr0.6667Co0.3333Ti1.0P3O12,8.129335,0.2533809866920752
Li0.1053Cr0.0439Co0.0088Ti0.0526P0.1579O0.6316,Li2.0Cr0.8333Co0.1667Ti1.0P3O12,7.845156,0.3348460059271469
Li0.1053Cr0.0526Co0.0000Ti0.0526P0.1579O0.6316,Li2.0Cr1.0Co0.0Ti1.0P3O12,7.845156,
Li0.1130Cr0.0000Co0.0609Ti0.0435P0.1565O0.6261,Li2.1667Cr0.0Co1.1667Ti0.8333P3O12,8.147218,
Li0.1130Cr0.0087Co0.0522Ti0.0435P0.1565O0.6261,Li2.1667Cr0.1667Co1.0Ti0.8333P3O12,8.147218,0.08459065504098263
Li0.1130Cr0.0261Co0.0348Ti0.0435P0.1565O0.6261,Li2.1667Cr0.5Co0.6667Ti0.8333P3O12,8.129335,0.03338533634892712
Li0.1130Cr0.0348Co0.0261Ti0.0435P0.1565O0.6261,Li2.1667Cr0.6667Co0.5Ti0.8333P3O12,8.129335,0.040174987101342916
Li0.1130Cr0.0522Co0.0087Ti0.0435P0.1565O0.6261,Li2.1667Cr1.0Co0.1667Ti0.8333P3O12,7.845156,0.2932325654684078
Li0.1130Cr0.0609Co0.0000Ti0.0435P0.1565O0.6261,Li2.1667Cr1.1667Co0.0Ti0.8333P3O12,13.286617,
Li0.1207Cr0.0000Co0.0690Ti0.0345P0.1552O0.6207,Li2.3333Cr0.0Co1.3333Ti0.6667P3O12,8.147218,
Li0.1207Cr0.0172Co0.0517Ti0.0345P0.1552O0.6207,Li2.3333Cr0.3333Co1.0Ti0.6667P3O12,8.147218,0.17604418368114344
Li0.1207Cr0.0259Co0.0431Ti0.0345P0.1552O0.6207,Li2.3333Cr0.5Co0.8333Ti0.6667P3O12,8.147218,0.033015273930366164
Li0.1207Cr0.0431Co0.0259Ti0.0345P0.1552O0.6207,Li2.3333Cr0.8333Co0.5Ti0.6667P3O12,7.845156,0.04473762377947078
Li0.1207Cr0.0517Co0.0172Ti0.0345P0.1552O0.6207,Li2.3333Cr1.0Co0.3333Ti0.6667P3O12,7.845156,0.49206888029556456
Li0.1207Cr0.0690Co0.0000Ti0.0345P0.1552O0.6207,Li2.3333Cr1.3333Co0.0Ti0.6667P3O12,13.286617,
Li0.1282Cr0.0000Co0.0769Ti0.0256P0.1538O0.6154,Li2.5Cr0.0Co1.5Ti0.5P3O12,8.147218,
Li0.1282Cr0.0085Co0.0684Ti0.0256P0.1538O0.6154,Li2.5Cr0.1667Co1.3333Ti0.5P3O12,8.147218,0.10459771326333879
Li0.1282Cr0.0171Co0.0598Ti0.0256P0.1538O0.6154,Li2.5Cr0.3333Co1.1667Ti0.5P3O12,8.147218,0.19044545515830216
Li0.1282Cr0.0256Co0.0513Ti0.0256P0.1538O0.6154,Li2.5Cr0.5Co1.0Ti0.5P3O12,8.147218,0.26237253476054645
Li0.1282Cr0.0342Co0.0427Ti0.0256P0.1538O0.6154,Li2.5Cr0.6667Co0.8333Ti0.5P3O12,8.147218,0.03786529529081779
Li0.1282Cr0.0427Co0.0342Ti0.0256P0.1538O0.6154,Li2.5Cr0.8333Co0.6667Ti0.5P3O12,7.845156,0.04213975079889336
Li0.1282Cr0.0513Co0.0256Ti0.0256P0.1538O0.6154,Li2.5Cr1.0Co0.5Ti0.5P3O12,7.845156,0.6524740954838777
Li0.1282Cr0.0598Co0.0171Ti0.0256P0.1538O0.6154,Li2.5Cr1.1667Co0.3333Ti0.5P3O12,7.845156,0.5205279043050427
Li0.1282Cr0.0684Co0.0085Ti0.0256P0.1538O0.6154,Li2.5Cr1.3333Co0.1667Ti0.5P3O12,13.286617,0.3388861765778822
Li0.1282Cr0.0769Co0.0000Ti0.0256P0.1538O0.6154,Li2.5Cr1.5Co0.0Ti0.5P3O12,13.286617,
Li0.1356Cr0.0000Co0.0847Ti0.0169P0.1525O0.6102,Li2.6667Cr0.0Co1.6667Ti0.3333P3O12,8.147218,
Li0.1356Cr0.0085Co0.0763Ti0.0169P0.1525O0.6102,Li2.6667Cr0.1667Co1.5Ti0.3333P3O12,8.147218,0.12204083628946642
Li0.1356Cr0.0254Co0.0593Ti0.0169P0.1525O0.6102,Li2.6667Cr0.5Co1.1667Ti0.3333P3O12,8.147218,0.2823935532478429
Li0.1356Cr0.0339Co0.0508Ti0.0169P0.1525O0.6102,Li2.6667Cr0.6667Co1.0Ti0.3333P3O12,8.147218,0.34516713041075736
Li0.1356Cr0.0508Co0.0339Ti0.0169P0.1525O0.6102,Li2.6667Cr1.0Co0.6667Ti0.3333P3O12,7.845156,0.7975229216681753
Li0.1356Cr0.0593Co0.0254Ti0.0169P0.1525O0.6102,Li2.6667Cr1.1667Co0.5Ti0.3333P3O12,7.845156,0.6965602526903752
Li0.1356Cr0.0763Co0.0085Ti0.0169P0.1525O0.6102,Li2.6667Cr1.5Co0.1667Ti0.3333P3O12,13.286617,0.37643296372476537
Li0.1356Cr0.0847Co0.0000Ti0.0169P0.1525O0.6102,Li2.6667Cr1.6667Co0.0Ti0.3333P3O12,13.699678,
Li0.1429Cr0.0000Co0.0924Ti0.0084P0.1513O0.6050,Li2.8333Cr0.0Co1.8333Ti0.1667P3O12,11.87875,
Li0.1429Cr0.0168Co0.0756Ti0.0084P0.1513O0.6050,Li2.8333Cr0.3333Co1.5Ti0.1667P3O12,11.87875,0.2456734416917191
Li0.1429Cr0.0252Co0.0672Ti0.0084P0.1513O0.6050,Li2.8333Cr0.5Co1.3333Ti0.1667P3O12,11.87875,0.3313575053935782
Li0.1429Cr0.0420Co0.0504Ti0.0084P0.1513O0.6050,Li2.8333Cr0.8333Co1.0Ti0.1667P3O12,11.594573,0.44868695690160826
Li0.1429Cr0.0504Co0.0420Ti0.0084P0.1513O0.6050,Li2.8333Cr1.0Co0.8333Ti0.1667P3O12,11.594573,0.981491125214702
Li0.1429Cr0.0672Co0.0252Ti0.0084P0.1513O0.6050,Li2.8333Cr1.3333Co0.5Ti0.1667P3O12,17.018145,0.781815569574517
Li0.1429Cr0.0756Co0.0168Ti0.0084P0.1513O0.6050,Li2.8333Cr1.5Co0.3333Ti0.1667P3O12,17.018145,0.6433624446572932
Li0.1429Cr0.0924Co0.0000Ti0.0084P0.1513O0.6050,Li2.8333Cr1.8333Co0.0Ti0.1667P3O12,17.431204,
Li0.1500Cr0.0000Co0.1000Ti0.0000P0.1500O0.6000,Li3.0Cr0.0Co2.0Ti0.0P3O12,15.21023,
Li0.1500Cr0.0083Co0.0917Ti0.0000P0.1500O0.6000,Li3.0Cr0.1667Co1.8333Ti0.0P3O12,15.224806,
Li0.1500Cr0.0167Co0.0833Ti0.0000P0.1500O0.6000,Li3.0Cr0.3333Co1.6667Ti0.0P3O12,15.224806,
Li0.1500Cr0.0250Co0.0750Ti0.0000P0.1500O0.6000,Li3.0Cr0.5Co1.5Ti0.0P3O12,15.224806,
Li0.1500Cr0.0333Co0.0667Ti0.0000P0.1500O0.6000,Li3.0Cr0.6667Co1.3333Ti0.0P3O12,15.224806,
Li0.1500Cr0.0417Co0.0583Ti0.0000P0.1500O0.6000,Li3.0Cr0.8333Co1.1667Ti0.0P3O12,14.940629,
Li0.1500Cr0.0500Co0.0500Ti0.0000P0.1500O0.6000,Li3.0Cr1.0Co1.0Ti0.0P3O12,14.940629,
Li0.1500Cr0.0583Co0.0417Ti0.0000P0.1500O0.6000,Li3.0Cr1.1667Co0.8333Ti0.0P3O12,14.940629,
Li0.1500Cr0.0667Co0.0333Ti0.0000P0.1500O0.6000,Li3.0Cr1.3333Co0.6667Ti0.0P3O12,17.490267,
Li0.1500Cr0.0750Co0.0250Ti0.0000P0.1500O0.6000,Li3.0Cr1.5Co0.5Ti0.0P3O12,17.490267,
Li0.1500Cr0.0833Co0.0167Ti0.0000P0.1500O0.6000,Li3.0Cr1.6667Co0.3333Ti0.0P3O12,17.903326,
Li0.1500Cr0.0917Co0.0083Ti0.0000P0.1500O0.6000,Li3.0Cr1.8333Co0.1667Ti0.0P3O12,17.903326,
Li0.1500Cr0.1000Co0.0000Ti0.0000P0.1500O0.6000,Li3.0Cr2.0Co0.0Ti0.0P3O12,17.903326,
Li0.0556Cr0.0000Ti0.1111P0.1667O0.6667,Li1.0Cr0.0Cr0.0Ti2.0P3O12,7.7087817,
Li0.0642Cr0.0092Ti0.1009P0.1651O0.6605,Li1.1667Cr0.0Cr0.1667Ti1.8333P3O12,7.7087817,0.02535472666351712
Li0.0642Cr0.0092Ti0.1009P0.1651O0.6605,Li1.1667Cr0.1667Cr0.0Ti1.8333P3O12,7.7087817,
Li0.0727Cr0.0182Ti0.0909P0.1636O0.6545,Li1.3333Cr0.0Cr0.3333Ti1.6667P3O12,7.7087817,0.07088229605626821
Li0.0727Cr0.0182Ti0.0909P0.1636O0.6545,Li1.3333Cr0.3333Cr0.0Ti1.6667P3O12,7.7087817,
Li0.0811Cr0.0270Ti0.0811P0.1622O0.6486,Li1.5Cr0.0Cr0.5Ti1.5P3O12,7.750805,0.13138030719334834
Li0.0811Cr0.0270Ti0.0811P0.1622O0.6486,Li1.5Cr0.1667Cr0.3333Ti1.5P3O12,7.750805,0.07017136666876442
Li0.0811Cr0.0270Ti0.0811P0.1622O0.6486,Li1.5Cr0.3333Cr0.1667Ti1.5P3O12,7.750805,0.02507178073366021
Li0.0811Cr0.0270Ti0.0811P0.1622O0.6486,Li1.5Cr0.5Cr0.0Ti1.5P3O12,7.750805,
Li0.0893Cr0.0357Ti0.0714P0.1607O0.6429,Li1.6667Cr0.0Cr0.6667Ti1.3333P3O12,8.129335,0.18198167036715748
Li0.0893Cr0.0357Ti0.0714P0.1607O0.6429,Li1.6667Cr0.1667Cr0.5Ti1.3333P3O12,8.129335,0.13063636033476791
Li0.0893Cr0.0357Ti0.0714P0.1607O0.6429,Li1.6667Cr0.5Cr0.1667Ti1.3333P3O12,8.129335,0.024911779029704956
Li0.0893Cr0.0357Ti0.0714P0.1607O0.6429,Li1.6667Cr0.6667Cr0.0Ti1.3333P3O12,8.129335,
Li0.0973Cr0.0442Ti0.0619P0.1593O0.6372,Li1.8333Cr0.0Cr0.8333Ti1.1667P3O12,7.845156,0.22879474695998384
Li0.0973Cr0.0442Ti0.0619P0.1593O0.6372,Li1.8333Cr0.3333Cr0.5Ti1.1667P3O12,7.845156,0.12904335774669265
Li0.0973Cr0.0442Ti0.0619P0.1593O0.6372,Li1.8333Cr0.5Cr0.3333Ti1.1667P3O12,7.845156,0.06923798638343204
Li0.0973Cr0.0442Ti0.0619P0.1593O0.6372,Li1.8333Cr0.8333Cr0.0Ti1.1667P3O12,7.845156,
Li0.1053Cr0.0526Ti0.0526P0.1579O0.6316,Li2.0Cr0.0Cr1.0Ti1.0P3O12,7.845156,0.0009497882684915493
Li0.1053Cr0.0526Ti0.0526P0.1579O0.6316,Li2.0Cr0.1667Cr0.8333Ti1.0P3O12,7.845156,0.2278614118604837
Li0.1053Cr0.0526Ti0.0526P0.1579O0.6316,Li2.0Cr0.3333Cr0.6667Ti1.0P3O12,7.845156,0.17989968131038295
Li0.1053Cr0.0526Ti0.0526P0.1579O0.6316,Li2.0Cr0.5Cr0.5Ti1.0P3O12,7.845156,0.12789041245578048
Li0.1053Cr0.0526Ti0.0526P0.1579O0.6316,Li2.0Cr0.6667Cr0.3333Ti1.0P3O12,7.845156,0.06846329578499598
Li0.1053Cr0.0526Ti0.0526P0.1579O0.6316,Li2.0Cr0.8333Cr0.1667Ti1.0P3O12,7.845156,0.024918371769740568
Li0.1053Cr0.0526Ti0.0526P0.1579O0.6316,Li2.0Cr1.0Cr0.0Ti1.0P3O12,7.845156,
Li0.1130Cr0.0609Ti0.0435P0.1565O0.6261,Li2.1667Cr0.0Cr1.1667Ti0.8333P3O12,13.286617,0.07083133854241101
Li0.1130Cr0.0609Ti0.0435P0.1565O0.6261,Li2.1667Cr0.1667Cr1.0Ti0.8333P3O12,13.286617,0.07055718734831554
Li0.1130Cr0.0609Ti0.0435P0.1565O0.6261,Li2.1667Cr0.5Cr0.6667Ti0.8333P3O12,13.286617,0.21773669824441383
Li0.1130Cr0.0609Ti0.0435P0.1565O0.6261,Li2.1667Cr0.6667Cr0.5Ti0.8333P3O12,13.286617,0.18441770877517877
Li0.1130Cr0.0609Ti0.0435P0.1565O0.6261,Li2.1667Cr1.0Cr0.1667Ti0.8333P3O12,13.286617,0.08312143265932448
Li0.1130Cr0.0609Ti0.0435P0.1565O0.6261,Li2.1667Cr1.1667Cr0.0Ti0.8333P3O12,13.286617,
Li0.1207Cr0.0690Ti0.0345P0.1552O0.6207,Li2.3333Cr0.0Cr1.3333Ti0.6667P3O12,13.286617,0.05506984676072476
Li0.1207Cr0.0690Ti0.0345P0.1552O0.6207,Li2.3333Cr0.3333Cr1.0Ti0.6667P3O12,13.286617,0.05463795913666307
Li0.1207Cr0.0690Ti0.0345P0.1552O0.6207,Li2.3333Cr0.5Cr0.8333Ti0.6667P3O12,13.286617,0.2552815199564581
Li0.1207Cr0.0690Ti0.0345P0.1552O0.6207,Li2.3333Cr0.8333Cr0.5Ti0.6667P3O12,13.286617,0.19204759814290745
Li0.1207Cr0.0690Ti0.0345P0.1552O0.6207,Li2.3333Cr1.0Cr0.3333Ti0.6667P3O12,13.286617,0.1466438381455107
Li0.1207Cr0.0690Ti0.0345P0.1552O0.6207,Li2.3333Cr1.3333Cr0.0Ti0.6667P3O12,13.286617,
Li0.1282Cr0.0769Ti0.0256P0.1538O0.6154,Li2.5Cr0.0Cr1.5Ti0.5P3O12,13.286617,0.039693169800631985
Li0.1282Cr0.0769Ti0.0256P0.1538O0.6154,Li2.5Cr0.1667Cr1.3333Ti0.5P3O12,13.286617,0.03957993275326778
Li0.1282Cr0.0769Ti0.0256P0.1538O0.6154,Li2.5Cr0.3333Cr1.1667Ti0.5P3O12,13.286617,0.03943271382764344
Li0.1282Cr0.0769Ti0.0256P0.1538O0.6154,Li2.5Cr0.5Cr1.0Ti0.5P3O12,13.286617,0.03926974100631461
Li0.1282Cr0.0769Ti0.0256P0.1538O0.6154,Li2.5Cr0.6667Cr0.8333Ti0.5P3O12,13.286617,0.2623088781243193
Li0.1282Cr0.0769Ti0.0256P0.1538O0.6154,Li2.5Cr0.8333Cr0.6667Ti0.5P3O12,13.286617,0.2338874247226893
Li0.1282Cr0.0769Ti0.0256P0.1538O0.6154,Li2.5Cr1.0Cr0.5Ti0.5P3O12,13.286617,0.2005569650538834
Li0.1282Cr0.0769Ti0.0256P0.1538O0.6154,Li2.5Cr1.1667Cr0.3333Ti0.5P3O12,13.286617,0.15376448252033198
Li0.1282Cr0.0769Ti0.0256P0.1538O0.6154,Li2.5Cr1.3333Cr0.1667Ti0.5P3O12,13.286617,0.09146804126069732
Li0.1282Cr0.0769Ti0.0256P0.1538O0.6154,Li2.5Cr1.5Cr0.0Ti0.5P3O12,13.286617,
Li0.1356Cr0.0847Ti0.0169P0.1525O0.6102,Li2.6667Cr0.0Cr1.6667Ti0.3333P3O12,13.699678,0.02517085570409056
Li0.1356Cr0.0847Ti0.0169P0.1525O0.6102,Li2.6667Cr0.1667Cr1.5Ti0.3333P3O12,13.699678,0.025041408447185932
Li0.1356Cr0.0847Ti0.0169P0.1525O0.6102,Li2.6667Cr0.5Cr1.1667Ti0.3333P3O12,13.699678,0.024774713219700505
Li0.1356Cr0.0847Ti0.0169P0.1525O0.6102,Li2.6667Cr0.6667Cr1.0Ti0.3333P3O12,13.699678,0.024638320425745503
Li0.1356Cr0.0847Ti0.0169P0.1525O0.6102,Li2.6667Cr1.0Cr0.6667Ti0.3333P3O12,13.699678,0.24463968958102048
Li0.1356Cr0.0847Ti0.0169P0.1525O0.6102,Li2.6667Cr1.1667Cr0.5Ti0.3333P3O12,13.699678,0.21025185685931483
Li0.1356Cr0.0847Ti0.0169P0.1525O0.6102,Li2.6667Cr1.5Cr0.1667Ti0.3333P3O12,13.699678,0.09920082272421603
Li0.1356Cr0.0847Ti0.0169P0.1525O0.6102,Li2.6667Cr1.6667Cr0.0Ti0.3333P3O12,13.699678,
Li0.1429Cr0.0924Ti0.0084P0.1513O0.6050,Li2.8333Cr0.0Cr1.8333Ti0.1667P3O12,17.431204,0.012086675487854854