formula,original_formula,thermal_expansion,li ion conductivity
Li0.1500Mn0.0167Al0.0833Ti0.0000P0.1500O0.6000,Li3.0Mn0.3333Al1.6667Ti0.0P3O12,15.070612,
Li0.1500Mn0.0250Al0.0750Ti0.0000P0.1500O0.6000,Li3.0Mn0.5Al1.5Ti0.0P3O12,15.070612,
Li0.1500Mn0.0333Al0.0667Ti0.0000P0.1500O0.6000,Li3.0Mn0.6667Al1.3333Ti0.0P3O12,15.070612,
Li0.1500Mn0.0417Al0.0583Ti0.0000P0.1500O0.6000,Li3.0Mn0.8333Al1.1667Ti0.0P3O12,12.514283,
Li0.1500Mn0.0500Al0.0500Ti0.0000P0.1500O0.6000,Li3.0Mn1.0Al1.0Ti0.0P3O12,12.879568,
Li0.1500Mn0.0583Al0.0417Ti0.0000P0.1500O0.6000,Li3.0Mn1.1667Al0.8333Ti0.0P3O12,12.879568,
Li0.1500Mn0.0667Al0.0333Ti0.0000P0.1500O0.6000,Li3.0Mn1.3333Al0.6667Ti0.0P3O12,12.879568,
Li0.1500Mn0.0750Al0.0250Ti0.0000P0.1500O0.6000,Li3.0Mn1.5Al0.5Ti0.0P3O12,12.879568,
Li0.1500Mn0.0833Al0.0167Ti0.0000P0.1500O0.6000,Li3.0Mn1.6667Al0.3333Ti0.0P3O12,12.704627,
Li0.1500Mn0.0917Al0.0083Ti0.0000P0.1500O0.6000,Li3.0Mn1.8333Al0.1667Ti0.0P3O12,12.704627,
Li0.1500Mn0.1000Al0.0000Ti0.0000P0.1500O0.6000,Li3.0Mn2.0Al0.0Ti0.0P3O12,12.704627,
Li0.0556Mn0.0000As0.0000Ti0.1111P0.1667O0.6667,Li1.0Mn0.0As0.0Ti2.0P3O12,7.7087817,
Li0.0642Mn0.0000As0.0092Ti0.1009P0.1651O0.6605,Li1.1667Mn0.0As0.1667Ti1.8333P3O12,7.7087817,
Li0.0642Mn0.0092As0.0000Ti0.1009P0.1651O0.6605,Li1.1667Mn0.1667As0.0Ti1.8333P3O12,7.7087817,
Li0.0727Mn0.0000As0.0182Ti0.0909P0.1636O0.6545,Li1.3333Mn0.0As0.3333Ti1.6667P3O12,7.7087817,
Li0.0727Mn0.0182As0.0000Ti0.0909P0.1636O0.6545,Li1.3333Mn0.3333As0.0Ti1.6667P3O12,7.7087817,
Li0.0811Mn0.0000As0.0270Ti0.0811P0.1622O0.6486,Li1.5Mn0.0As0.5Ti1.5P3O12,7.750805,
Li0.0811Mn0.0090As0.0180Ti0.0811P0.1622O0.6486,Li1.5Mn0.1667As0.3333Ti1.5P3O12,7.750805,0.23471629542758551
Li0.0811Mn0.0180As0.0090Ti0.0811P0.1622O0.6486,Li1.5Mn0.3333As0.1667Ti1.5P3O12,7.750805,0.4012757424878456
Li0.0811Mn0.0270As0.0000Ti0.0811P0.1622O0.6486,Li1.5Mn0.5As0.0Ti1.5P3O12,7.750805,
Li0.0893Mn0.0000As0.0357Ti0.0714P0.1607O0.6429,Li1.6667Mn0.0As0.6667Ti1.3333P3O12,8.129335,
Li0.0893Mn0.0089As0.0268Ti0.0714P0.1607O0.6429,Li1.6667Mn0.1667As0.5Ti1.3333P3O12,8.129335,0.2067306604057171
Li0.0893Mn0.0268As0.0089Ti0.0714P0.1607O0.6429,Li1.6667Mn0.5As0.1667Ti1.3333P3O12,8.129335,0.4665437587801824
Li0.0893Mn0.0357As0.0000Ti0.0714P0.1607O0.6429,Li1.6667Mn0.6667As0.0Ti1.3333P3O12,8.129335,
Li0.0973Mn0.0000As0.0442Ti0.0619P0.1593O0.6372,Li1.8333Mn0.0As0.8333Ti1.1667P3O12,8.129335,
Li0.0973Mn0.0177As0.0265Ti0.0619P0.1593O0.6372,Li1.8333Mn0.3333As0.5Ti1.1667P3O12,8.129335,0.30196153193363157
Li0.0973Mn0.0265As0.0177Ti0.0619P0.1593O0.6372,Li1.8333Mn0.5As0.3333Ti1.1667P3O12,8.129335,0.3847449179525801
Li0.0973Mn0.0442As0.0000Ti0.0619P0.1593O0.6372,Li1.8333Mn0.8333As0.0Ti1.1667P3O12,7.1790795,
Li0.1053Mn0.0000As0.0526Ti0.0526P0.1579O0.6316,Li2.0Mn0.0As1.0Ti1.0P3O12,8.129335,
Li0.1053Mn0.0088As0.0439Ti0.0526P0.1579O0.6316,Li2.0Mn0.1667As0.8333Ti1.0P3O12,8.129335,0.18081465205776134
Li0.1053Mn0.0175As0.0351Ti0.0526P0.1579O0.6316,Li2.0Mn0.3333As0.6667Ti1.0P3O12,8.129335,0.2830935965955708
Li0.1053Mn0.0263As0.0263Ti0.0526P0.1579O0.6316,Li2.0Mn0.5As0.5Ti1.0P3O12,8.129335,0.3532734194254346
Li0.1053Mn0.0351As0.0175Ti0.0526P0.1579O0.6316,Li2.0Mn0.6667As0.3333Ti1.0P3O12,8.129335,0.4244161310053667
Li0.1053Mn0.0439As0.0088Ti0.0526P0.1579O0.6316,Li2.0Mn0.8333As0.1667Ti1.0P3O12,7.1790795,0.5701345921008302
Li0.1053Mn0.0526As0.0000Ti0.0526P0.1579O0.6316,Li2.0Mn1.0As0.0Ti1.0P3O12,7.5443654,
Li0.1130Mn0.0000As0.0609Ti0.0435P0.1565O0.6261,Li2.1667Mn0.0As1.1667Ti0.8333P3O12,8.129335,
Li0.1130Mn0.0087As0.0522Ti0.0435P0.1565O0.6261,Li2.1667Mn0.1667As1.0Ti0.8333P3O12,8.129335,0.03322765051862145
Li0.1130Mn0.0261As0.0348Ti0.0435P0.1565O0.6261,Li2.1667Mn0.5As0.6667Ti0.8333P3O12,8.129335,0.0069356984397512525
Li0.1130Mn0.0348As0.0261Ti0.0435P0.1565O0.6261,Li2.1667Mn0.6667As0.5Ti0.8333P3O12,8.129335,0.009302328885372595
Li0.1130Mn0.0522As0.0087Ti0.0435P0.1565O0.6261,Li2.1667Mn1.0As0.1667Ti0.8333P3O12,7.5443654,0.6255781566066854
Li0.1130Mn0.0609As0.0000Ti0.0435P0.1565O0.6261,Li2.1667Mn1.1667As0.0Ti0.8333P3O12,7.5443654,
Li0.1207Mn0.0000As0.0690Ti0.0345P0.1552O0.6207,Li2.3333Mn0.0As1.3333Ti0.6667P3O12,8.129335,
Li0.1207Mn0.0172As0.0517Ti0.0345P0.1552O0.6207,Li2.3333Mn0.3333As1.0Ti0.6667P3O12,8.129335,0.06157601013026439
Li0.1207Mn0.0259As0.0431Ti0.0345P0.1552O0.6207,Li2.3333Mn0.5As0.8333Ti0.6667P3O12,8.129335,0.004891624651818798
Li0.1207Mn0.0431As0.0259Ti0.0345P0.1552O0.6207,Li2.3333Mn0.8333As0.5Ti0.6667P3O12,7.1790795,0.008394466706836643
Li0.1207Mn0.0517As0.0172Ti0.0345P0.1552O0.6207,Li2.3333Mn1.0As0.3333Ti0.6667P3O12,7.5443654,0.8666491651604195
Li0.1207Mn0.0690As0.0000Ti0.0345P0.1552O0.6207,Li2.3333Mn1.3333As0.0Ti0.6667P3O12,7.5443654,
Li0.1282Mn0.0000As0.0769Ti0.0256P0.1538O0.6154,Li2.5Mn0.0As1.5Ti0.5P3O12,8.129335,
Li0.1282Mn0.0085As0.0684Ti0.0256P0.1538O0.6154,Li2.5Mn0.1667As1.3333Ti0.5P3O12,8.129335,0.0439168370406574
Li0.1282Mn0.0171As0.0598Ti0.0256P0.1538O0.6154,Li2.5Mn0.3333As1.1667Ti0.5P3O12,8.129335,0.07119936494308438
Li0.1282Mn0.0256As0.0513Ti0.0256P0.1538O0.6154,Li2.5Mn0.5As1.0Ti0.5P3O12,8.129335,0.08734564656800187
Li0.1282Mn0.0342As0.0427Ti0.0256P0.1538O0.6154,Li2.5Mn0.6667As0.8333Ti0.5P3O12,8.129335,0.004350998213766268
Li0.1282Mn0.0427As0.0342Ti0.0256P0.1538O0.6154,Li2.5Mn0.8333As0.6667Ti0.5P3O12,7.1790795,0.005511987347515685
Li0.1282Mn0.0513As0.0256Ti0.0256P0.1538O0.6154,Li2.5Mn1.0As0.5Ti0.5P3O12,7.5443654,0.9809950003504835
Li0.1282Mn0.0598As0.0171Ti0.0256P0.1538O0.6154,Li2.5Mn1.1667As0.3333Ti0.5P3O12,7.5443654,0.924874511618739
Li0.1282Mn0.0684As0.0085Ti0.0256P0.1538O0.6154,Li2.5Mn1.3333As0.1667Ti0.5P3O12,7.5443654,0.6918672954512265
Li0.1282Mn0.0769As0.0000Ti0.0256P0.1538O0.6154,Li2.5Mn1.5As0.0Ti0.5P3O12,7.5443654,
Li0.1356Mn0.0000As0.0847Ti0.0169P0.1525O0.6102,Li2.6667Mn0.0As1.6667Ti0.3333P3O12,8.129335,
Li0.1356Mn0.0085As0.0763Ti0.0169P0.1525O0.6102,Li2.6667Mn0.1667As1.5Ti0.3333P3O12,8.129335,0.05468068884564584
Li0.1356Mn0.0254As0.0593Ti0.0169P0.1525O0.6102,Li2.6667Mn0.5As1.1667Ti0.3333P3O12,8.129335,0.10141241337077947
Li0.1356Mn0.0339As0.0508Ti0.0169P0.1525O0.6102,Li2.6667Mn0.6667As1.0Ti0.3333P3O12,8.129335,0.1128371444480681
Li0.1356Mn0.0508As0.0339Ti0.0169P0.1525O0.6102,Li2.6667Mn1.0As0.6667Ti0.3333P3O12,7.5443654,1.1210042961669742
Li0.1356Mn0.0593As0.0254Ti0.0169P0.1525O0.6102,Li2.6667Mn1.1667As0.5Ti0.3333P3O12,7.5443654,1.0875773666602104
Li0.1356Mn0.0763As0.0085Ti0.0169P0.1525O0.6102,Li2.6667Mn1.5As0.1667Ti0.3333P3O12,7.5443654,0.7858052608086663
Li0.1356Mn0.0847As0.0000Ti0.0169P0.1525O0.6102,Li2.6667Mn1.6667As0.0Ti0.3333P3O12,7.480082,
Li0.1429Mn0.0000As0.0924Ti0.0084P0.1513O0.6050,Li2.8333Mn0.0As1.8333Ti0.1667P3O12,11.860868,
Li0.1429Mn0.0168As0.0756Ti0.0084P0.1513O0.6050,Li2.8333Mn0.3333As1.5Ti0.1667P3O12,11.860868,0.10723007037110831
Li0.1429Mn0.0252As0.0672Ti0.0084P0.1513O0.6050,Li2.8333Mn0.5As1.3333Ti0.1667P3O12,11.860868,0.12795452943714478
Li0.1429Mn0.0420As0.0504Ti0.0084P0.1513O0.6050,Li2.8333Mn0.8333As1.0Ti0.1667P3O12,9.057569,0.15298194175712307
Li0.1429Mn0.0504As0.0420Ti0.0084P0.1513O0.6050,Li2.8333Mn1.0As0.8333Ti0.1667P3O12,9.4228525,1.4332572523399412
Li0.1429Mn0.0672As0.0252Ti0.0084P0.1513O0.6050,Li2.8333Mn1.3333As0.5Ti0.1667P3O12,9.4228525,1.3485078750497275
Li0.1429Mn0.0756As0.0168Ti0.0084P0.1513O0.6050,Li2.8333Mn1.5As0.3333Ti0.1667P3O12,9.4228525,1.2416771354842921
Li0.1429Mn0.0924As0.0000Ti0.0084P0.1513O0.6050,Li2.8333Mn1.8333As0.0Ti0.1667P3O12,9.358569,
Li0.1500Mn0.0000As0.1000Ti0.0000P0.1500O0.6000,Li3.0Mn0.0As2.0Ti0.0P3O12,15.206924,
Li0.1500Mn0.0083As0.0917Ti0.0000P0.1500O0.6000,Li3.0Mn0.1667As1.8333Ti0.0P3O12,15.206924,
Li0.1500Mn0.0167As0.0833Ti0.0000P0.1500O0.6000,Li3.0Mn0.3333As1.6667Ti0.0P3O12,15.206924,
Li0.1500Mn0.0250As0.0750Ti0.0000P0.1500O0.6000,Li3.0Mn0.5As1.5Ti0.0P3O12,15.206924,
Li0.1500Mn0.0333As0.0667Ti0.0000P0.1500O0.6000,Li3.0Mn0.6667As1.3333Ti0.0P3O12,15.206924,
Li0.1500Mn0.0417As0.0583Ti0.0000P0.1500O0.6000,Li3.0Mn0.8333As1.1667Ti0.0P3O12,12.4036255,
Li0.1500Mn0.0500As0.0500Ti0.0000P0.1500O0.6000,Li3.0Mn1.0As1.0Ti0.0P3O12,12.76891,
Li0.1500Mn0.0583As0.0417Ti0.0000P0.1500O0.6000,Li3.0Mn1.1667As0.8333Ti0.0P3O12,12.76891,
Li0.1500Mn0.0667As0.0333Ti0.0000P0.1500O0.6000,Li3.0Mn1.3333As0.6667Ti0.0P3O12,12.76891,
Li0.1500Mn0.0750As0.0250Ti0.0000P0.1500O0.6000,Li3.0Mn1.5As0.5Ti0.0P3O12,12.76891,
Li0.1500Mn0.0833As0.0167Ti0.0000P0.1500O0.6000,Li3.0Mn1.6667As0.3333Ti0.0P3O12,12.704627,
Li0.1500Mn0.0917As0.0083Ti0.0000P0.1500O0.6000,Li3.0Mn1.8333As0.1667Ti0.0P3O12,12.704627,
Li0.1500Mn0.1000As0.0000Ti0.0000P0.1500O0.6000,Li3.0Mn2.0As0.0Ti0.0P3O12,12.704627,
Li0.0556Mn0.0000B0.0000Ti0.1111P0.1667O0.6667,Li1.0Mn0.0B0.0Ti2.0P3O12,7.7087817,
Li0.0642Mn0.0000B0.0092Ti0.1009P0.1651O0.6605,Li1.1667Mn0.0B0.1667Ti1.8333P3O12,7.7087817,
Li0.0642Mn0.0092B0.0000Ti0.1009P0.1651O0.6605,Li1.1667Mn0.1667B0.0Ti1.8333P3O12,7.7087817,
Li0.0727Mn0.0000B0.0182Ti0.0909P0.1636O0.6545,Li1.3333Mn0.0B0.3333Ti1.6667P3O12,7.7087817,
Li0.0727Mn0.0182B0.0000Ti0.0909P0.1636O0.6545,Li1.3333Mn0.3333B0.0Ti1.6667P3O12,7.7087817,
Li0.0811Mn0.0000B0.0270Ti0.0811P0.1622O0.6486,Li1.5Mn0.0B0.5Ti1.5P3O12,7.750805,
Li0.0811Mn0.0090B0.0180Ti0.0811P0.1622O0.6486,Li1.5Mn0.1667B0.3333Ti1.5P3O12,7.750805,0.5273200322903776
Li0.0811Mn0.0180B0.0090Ti0.0811P0.1622O0.6486,Li1.5Mn0.3333B0.1667Ti1.5P3O12,7.750805,0.9081573789129004
Li0.0811Mn0.0270B0.0000Ti0.0811P0.1622O0.6486,Li1.5Mn0.5B0.0Ti1.5P3O12,7.750805,
Li0.0893Mn0.0000B0.0357Ti0.0714P0.1607O0.6429,Li1.6667Mn0.0B0.6667Ti1.3333P3O12,8.129335,
Li0.0893Mn0.0089B0.0268Ti0.0714P0.1607O0.6429,Li1.6667Mn0.1667B0.5Ti1.3333P3O12,8.129335,0.47970394605902034
Li0.0893Mn0.0268B0.0089Ti0.0714P0.1607O0.6429,Li1.6667Mn0.5B0.1667Ti1.3333P3O12,8.129335,1.1115858813224548
Li0.0893Mn0.0357B0.0000Ti0.0714P0.1607O0.6429,Li1.6667Mn0.6667B0.0Ti1.3333P3O12,8.129335,
Li0.0973Mn0.0000B0.0442Ti0.0619P0.1593O0.6372,Li1.8333Mn0.0B0.8333Ti1.1667P3O12,8.129335,
Li0.0973Mn0.0177B0.0265Ti0.0619P0.1593O0.6372,Li1.8333Mn0.3333B0.5Ti1.1667P3O12,8.129335,0.6729261494234667
Li0.0973Mn0.0265B0.0177Ti0.0619P0.1593O0.6372,Li1.8333Mn0.5B0.3333Ti1.1667P3O12,8.129335,0.9109676086436906
Li0.0973Mn0.0442B0.0000Ti0.0619P0.1593O0.6372,Li1.8333Mn0.8333B0.0Ti1.1667P3O12,7.1790795,
Li0.1053Mn0.0000B0.0526Ti0.0526P0.1579O0.6316,Li2.0Mn0.0B1.0Ti1.0P3O12,8.129335,
Li0.1053Mn0.0088B0.0439Ti0.0526P0.1579O0.6316,Li2.0Mn0.1667B0.8333Ti1.0P3O12,8.129335,0.44865296582026415
Li0.1053Mn0.0175B0.0351Ti0.0526P0.1579O0.6316,Li2.0Mn0.3333B0.6667Ti1.0P3O12,8.129335,0.6347852809217638
Li0.1053Mn0.0263B0.0263Ti0.0526P0.1579O0.6316,Li2.0Mn0.5B0.5Ti1.0P3O12,8.129335,0.8243157312439179
Li0.1053Mn0.0351B0.0175Ti0.0526P0.1579O0.6316,Li2.0Mn0.6667B0.3333Ti1.0P3O12,8.129335,1.0595104340589234
Li0.1053Mn0.0439B0.0088Ti0.0526P0.1579O0.6316,Li2.0Mn0.8333B0.1667Ti1.0P3O12,7.1790795,1.4730093379350373
Li0.1053Mn0.0526B0.0000Ti0.0526P0.1579O0.6316,Li2.0Mn1.0B0.0Ti1.0P3O12,7.5443654,
Li0.1130Mn0.0000B0.0609Ti0.0435P0.1565O0.6261,Li2.1667Mn0.0B1.1667Ti0.8333P3O12,8.129335,
Li0.1130Mn0.0087B0.0522Ti0.0435P0.1565O0.6261,Li2.1667Mn0.1667B1.0Ti0.8333P3O12,8.129335,0.27682462100247784
Li0.1130Mn0.0261B0.0348Ti0.0435P0.1565O0.6261,Li2.1667Mn0.5B0.6667Ti0.8333P3O12,8.129335,0.5617202274134382
Li0.1130Mn0.0348B0.0261Ti0.0435P0.1565O0.6261,Li2.1667Mn0.6667B0.5Ti0.8333P3O12,8.129335,0.6391033279202043
Li0.1130Mn0.0522B0.0087Ti0.0435P0.1565O0.6261,Li2.1667Mn1.0B0.1667Ti0.8333P3O12,7.5443654,2.783559967836234
Li0.1130Mn0.0609B0.0000Ti0.0435P0.1565O0.6261,Li2.1667Mn1.1667B0.0Ti0.8333P3O12,7.5443654,
Li0.1207Mn0.0000B0.0690Ti0.0345P0.1552O0.6207,Li2.3333Mn0.0B1.3333Ti0.6667P3O12,8.129335,
Li0.1207Mn0.0172B0.0517Ti0.0345P0.1552O0.6207,Li2.3333Mn0.3333B1.0Ti0.6667P3O12,8.129335,0.4631260863024323
Li0.1207Mn0.0259B0.0431Ti0.0345P0.1552O0.6207,Li2.3333Mn0.5B0.8333Ti0.6667P3O12,8.129335,0.51409497394127
Li0.1207Mn0.0431B0.0259Ti0.0345P0.1552O0.6207,Li2.3333Mn0.8333B0.5Ti0.6667P3O12,7.1790795,0.6656731239596856
Li0.1207Mn0.0517B0.0172Ti0.0345P0.1552O0.6207,Li2.3333Mn1.0B0.3333Ti0.6667P3O12,7.5443654,4.615349533932189
Li0.1207Mn0.0690B0.0000Ti0.0345P0.1552O0.6207,Li2.3333Mn1.3333B0.0Ti0.6667P3O12,7.5443654,
Li0.1282Mn0.0000B0.0769Ti0.0256P0.1538O0.6154,Li2.5Mn0.0B1.5Ti0.5P3O12,8.129335,
Li0.1282Mn0.0085B0.0684Ti0.0256P0.1538O0.6154,Li2.5Mn0.1667B1.3333Ti0.5P3O12,8.129335,0.35290454450944453
Li0.1282Mn0.0171B0.0598Ti0.0256P0.1538O0.6154,Li2.5Mn0.3333B1.1667Ti0.5P3O12,8.129335,0.5171123381074612
Li0.1282Mn0.0256B0.0513Ti0.0256P0.1538O0.6154,Li2.5Mn0.5B1.0Ti0.5P3O12,8.129335,0.6259347385623726
Li0.1282Mn0.0342B0.0427Ti0.0256P0.1538O0.6154,Li2.5Mn0.6667B0.8333Ti0.5P3O12,8.129335,0.5225423920310218
Li0.1282Mn0.0427B0.0342Ti0.0256P0.1538O0.6154,Li2.5Mn0.8333B0.6667Ti0.5P3O12,7.1790795,0.5935428039316966
Li0.1282Mn0.0513B0.0256Ti0.0256P0.1538O0.6154,Li2.5Mn1.0B0.5Ti0.5P3O12,7.5443654,6.154464798370757
Li0.1282Mn0.0598B0.0171Ti0.0256P0.1538O0.6154,Li2.5Mn1.1667B0.3333Ti0.5P3O12,7.5443654,5.054132927431889
Li0.1282Mn0.0684B0.0085Ti0.0256P0.1538O0.6154,Li2.5Mn1.3333B0.1667Ti0.5P3O12,7.5443654,3.4312311979044074
Li0.1282Mn0.0769B0.0000Ti0.0256P0.1538O0.6154,Li2.5Mn1.5B0.0Ti0.5P3O12,7.5443654,
Li0.1356Mn0.0000B0.0847Ti0.0169P0.1525O0.6102,Li2.6667Mn0.0B1.6667Ti0.3333P3O12,8.129335,
Li0.1356Mn0.0085B0.0763Ti0.0169P0.1525O0.6102,Li2.6667Mn0.1667B1.5Ti0.3333P3O12,8.129335,0.4145453700639683
Li0.1356Mn0.0254B0.0593Ti0.0169P0.1525O0.6102,Li2.6667Mn0.5B1.1667Ti0.3333P3O12,8.129335,0.708573573281157
Li0.1356Mn0.0339B0.0508Ti0.0169P0.1525O0.6102,Li2.6667Mn0.6667B1.0Ti0.3333P3O12,8.129335,0.7959500603399081
Li0.1356Cr0.0508B0.0339Ti0.0169P0.1525O0.6102,Li2.6667Cr1.0B0.6667Ti0.3333P3O12,7.845156,7.111326930351994
Li0.1429B0.0252Sc0.0672Ti0.0084P0.1513O0.6050,Li2.8333B0.5Sc1.3333Ti0.1667P3O12,10.215678,7.090739932149021
Li0.1356Mn0.0763B0.0085Ti0.0169P0.1525O0.6102,Li2.6667Mn1.5B0.1667Ti0.3333P3O12,7.5443654,4.147527440058777
Li0.1356Mn0.0847B0.0000Ti0.0169P0.1525O0.6102,Li2.6667Mn1.6667B0.0Ti0.3333P3O12,7.480082,
Li0.1429Mn0.0000B0.0924Ti0.0084P0.1513O0.6050,Li2.8333Mn0.0B1.8333Ti0.1667P3O12,11.860868,
Li0.1429Mn0.0168B0.0756Ti0.0084P0.1513O0.6050,Li2.8333Mn0.3333B1.5Ti0.1667P3O12,11.860868,0.7370148271228865
Li0.1429Mn0.0252B0.0672Ti0.0084P0.1513O0.6050,Li2.8333Mn0.5B1.3333Ti0.1667P3O12,11.860868,0.8681415191653072
Li0.1429Mn0.0420B0.0504Ti0.0084P0.1513O0.6050,Li2.8333Mn0.8333B1.0Ti0.1667P3O12,9.057569,1.0358421949652066
Li0.1429Sc0.0672B0.0252Ti0.0084P0.1513O0.6050,Li2.8333Sc1.3333B0.5Ti0.1667P3O12,10.215678,7.090739932149021
Li0.1356B0.0254Fe0.0593Ti0.0169P0.1525O0.6102,Li2.6667B0.5Fe1.1667Ti0.3333P3O12,7.040515,7.03604974068752
Li0.1356Fe0.0593B0.0254Ti0.0169P0.1525O0.6102,Li2.6667Fe1.1667B0.5Ti0.3333P3O12,7.040515,7.03604974068752
Li0.1429Mn0.0924B0.0000Ti0.0084P0.1513O0.6050,Li2.8333Mn1.8333B0.0Ti0.1667P3O12,9.358569,
Li0.1500Mn0.0000B0.1000Ti0.0000P0.1500O0.6000,Li3.0Mn0.0B2.0Ti0.0P3O12,15.206924,
Li0.1500Mn0.0083B0.0917Ti0.0000P0.1500O0.6000,Li3.0Mn0.1667B1.8333Ti0.0P3O12,15.206924,
Li0.1500Mn0.0167B0.0833Ti0.0000P0.1500O0.6000,Li3.0Mn0.3333B1.6667Ti0.0P3O12,15.206924,
Li0.1500Mn0.0250B0.0750Ti0.0000P0.1500O0.6000,Li3.0Mn0.5B1.5Ti0.0P3O12,15.206924,
Li0.1500Mn0.0333B0.0667Ti0.0000P0.1500O0.6000,Li3.0Mn0.6667B1.3333Ti0.0P3O12,15.206924,
Li0.1500Mn0.0417B0.0583Ti0.0000P0.1500O0.6000,Li3.0Mn0.8333B1.1667Ti0.0P3O12,12.4036255,
Li0.1500Mn0.0500B0.0500Ti0.0000P0.1500O0.6000,Li3.0Mn1.0B1.0Ti0.0P3O12,12.76891,
Li0.1500Mn0.0583B0.0417Ti0.0000P0.1500O0.6000,Li3.0Mn1.1667B0.8333Ti0.0P3O12,12.76891,
Li0.1500Mn0.0667B0.0333Ti0.0000P0.1500O0.6000,Li3.0Mn1.3333B0.6667Ti0.0P3O12,12.76891,
Li0.1500Mn0.0750B0.0250Ti0.0000P0.1500O0.6000,Li3.0Mn1.5B0.5Ti0.0P3O12,12.76891,
Li0.1500Mn0.0833B0.0167Ti0.0000P0.1500O0.6000,Li3.0Mn1.6667B0.3333Ti0.0P3O12,12.704627,
Li0.1500Mn0.0917B0.0083Ti0.0000P0.1500O0.6000,Li3.0Mn1.8333B0.1667Ti0.0P3O12,12.704627,
Li0.1500Mn0.1000B0.0000Ti0.0000P0.1500O0.6000,Li3.0Mn2.0B0.0Ti0.0P3O12,12.704627,
Li0.0556Mn0.0000Co0.0000Ti0.1111P0.1667O0.6667,Li1.0Mn0.0Co0.0Ti2.0P3O12,7.7087817,
Li0.0642Mn0.0000Co0.0092Ti0.1009P0.1651O0.6605,Li1.1667Mn0.0Co0.1667Ti1.8333P3O12,7.7087817,
Li0.0642Mn0.0092Co0.0000Ti0.1009P0.1651O0.6605,Li1.1667Mn0.1667Co0.0Ti1.8333P3O12,7.7087817,
Li0.0727Mn0.0000Co0.0182Ti0.0909P0.1636O0.6545,Li1.3333Mn0.0Co0.3333Ti1.6667P3O12,7.7087817,
Li0.0727Mn0.0182Co0.0000Ti0.0909P0.1636O0.6545,Li1.3333Mn0.3333Co0.0Ti1.6667P3O12,7.7087817,
Li0.0811Mn0.0000Co0.0270Ti0.0811P0.1622O0.6486,Li1.5Mn0.0Co0.5Ti1.5P3O12,7.750805,
Li0.0811Mn0.0090Co0.0180Ti0.0811P0.1622O0.6486,Li1.5Mn0.1667Co0.3333Ti1.5P3O12,7.750805,0.13505541414198075
Li0.0811Mn0.0180Co0.0090Ti0.0811P0.1622O0.6486,Li1.5Mn0.3333Co0.1667Ti1.5P3O12,7.750805,0.24483934387594253
Li0.0811Mn0.0270Co0.0000Ti0.0811P0.1622O0.6486,Li1.5Mn0.5Co0.0Ti1.5P3O12,7.750805,
Li0.0893Mn0.0000Co0.0357Ti0.0714P0.1607O0.6429,Li1.6667Mn0.0Co0.6667Ti1.3333P3O12,8.129335,
Li0.0893Mn0.0089Co0.0268Ti0.0714P0.1607O0.6429,Li1.6667Mn0.1667Co0.5Ti1.3333P3O12,8.129335,0.11856362879784944
Li0.0893Mn0.0268Co0.0089Ti0.0714P0.1607O0.6429,Li1.6667Mn0.5Co0.1667Ti1.3333P3O12,8.129335,0.28515390083295905
Li0.0893Mn0.0357Co0.0000Ti0.0714P0.1607O0.6429,Li1.6667Mn0.6667Co0.0Ti1.3333P3O12,8.129335,
Li0.0973Mn0.0000Co0.0442Ti0.0619P0.1593O0.6372,Li1.8333Mn0.0Co0.8333Ti1.1667P3O12,8.147218,
Li0.0973Mn0.0177Co0.0265Ti0.0619P0.1593O0.6372,Li1.8333Mn0.3333Co0.5Ti1.1667P3O12,8.129335,0.17326834412914688
Li0.0973Mn0.0265Co0.0177Ti0.0619P0.1593O0.6372,Li1.8333Mn0.5Co0.3333Ti1.1667P3O12,8.129335,0.23021114770275997
Li0.0973Mn0.0442Co0.0000Ti0.0619P0.1593O0.6372,Li1.8333Mn0.8333Co0.0Ti1.1667P3O12,7.1790795,
Li0.1053Mn0.0000Co0.0526Ti0.0526P0.1579O0.6316,Li2.0Mn0.0Co1.0Ti1.0P3O12,8.147218,
Li0.1053Mn0.0088Co0.0439Ti0.0526P0.1579O0.6316,Li2.0Mn0.1667Co0.8333Ti1.0P3O12,8.147218,0.09737162256712183
Li0.1053Mn0.0175Co0.0351Ti0.0526P0.1579O0.6316,Li2.0Mn0.3333Co0.6667Ti1.0P3O12,8.129335,0.15754569122751372
Li0.1053Mn0.0263Co0.0263Ti0.0526P0.1579O0.6316,Li2.0Mn0.5Co0.5Ti1.0P3O12,8.129335,0.20558531798711607
Li0.1053Mn0.0351Co0.0175Ti0.0526P0.1579O0.6316,Li2.0Mn0.6667Co0.3333Ti1.0P3O12,8.129335,0.24850039935093093
Li0.1053Mn0.0439Co0.0088Ti0.0526P0.1579O0.6316,Li2.0Mn0.8333Co0.1667Ti1.0P3O12,7.1790795,0.3416781901565975
Li0.1053Mn0.0526Co0.0000Ti0.0526P0.1579O0.6316,Li2.0Mn1.0Co0.0Ti1.0P3O12,7.5443654,
Li0.1130Mn0.0000Co0.0609Ti0.0435P0.1565O0.6261,Li2.1667Mn0.0Co1.1667Ti0.8333P3O12,8.147218,
Li0.1130Mn0.0087Co0.0522Ti0.0435P0.1565O0.6261,Li2.1667Mn0.1667Co1.0Ti0.8333P3O12,8.147218,0.11421196432393274
Li0.1130Mn0.0261Co0.0348Ti0.0435P0.1565O0.6261,Li2.1667Mn0.5Co0.6667Ti0.8333P3O12,8.129335,0.028665863992860457
Li0.1130Mn0.0348Co0.0261Ti0.0435P0.1565O0.6261,Li2.1667Mn0.6667Co0.5Ti0.8333P3O12,8.129335,0.033330544383926394
Li0.1130Mn0.0522Co0.0087Ti0.0435P0.1565O0.6261,Li2.1667Mn1.0Co0.1667Ti0.8333P3O12,7.5443654,0.34060844453015504
Li0.1130Mn0.0609Co0.0000Ti0.0435P0.1565O0.6261,Li2.1667Mn1.1667Co0.0Ti0.8333P3O12,7.5443654,
Li0.1207Mn0.0000Co0.0690Ti0.0345P0.1552O0.6207,Li2.3333Mn0.0Co1.3333Ti0.6667P3O12,8.147218,
Li0.1207Mn0.0172Co0.0517Ti0.0345P0.1552O0.6207,Li2.3333Mn0.3333Co1.0Ti0.6667P3O12,8.147218,0.2027967342364443
Li0.1207Mn0.0259Co0.0431Ti0.0345P0.1552O0.6207,Li2.3333Mn0.5Co0.8333Ti0.6667P3O12,8.147218,0.02575983227739941
Li0.1207Mn0.0431Co0.0259Ti0.0345P0.1552O0.6207,Li2.3333Mn0.8333Co0.5Ti0.6667P3O12,7.1790795,0.03446961915194616
Li0.1207Mn0.0517Co0.0172Ti0.0345P0.1552O0.6207,Li2.3333Mn1.0Co0.3333Ti0.6667P3O12,7.5443654,0.5687778247802437
Li0.1207Mn0.0690Co0.0000Ti0.0345P0.1552O0.6207,Li2.3333Mn1.3333Co0.0Ti0.6667P3O12,7.5443654,
Li0.1282Mn0.0000Co0.0769Ti0.0256P0.1538O0.6154,Li2.5Mn0.0Co1.5Ti0.5P3O12,8.147218,
Li0.1282Mn0.0085Co0.0684Ti0.0256P0.1538O0.6154,Li2.5Mn0.1667Co1.3333Ti0.5P3O12,8.147218,0.1419422773972547
Li0.1282Mn0.0171Co0.0598Ti0.0256P0.1538O0.6154,Li2.5Mn0.3333Co1.1667Ti0.5P3O12,8.147218,0.22304316030879728
Li0.1282Mn0.0256Co0.0513Ti0.0256P0.1538O0.6154,Li2.5Mn0.5Co1.0Ti0.5P3O12,8.147218,0.2717350682004242
Li0.1282Mn0.0342Co0.0427Ti0.0256P0.1538O0.6154,Li2.5Mn0.6667Co0.8333Ti0.5P3O12,8.147218,0.025579622739069413