formula,original_formula,thermal_expansion,li ion conductivity
Li0.1429Al0.0000Sb0.0924Ti0.0084P0.1513O0.6050,Li2.8333Al0.0Sb1.8333Ti0.1667P3O12,12.787092,
Li0.1429Al0.0168Sb0.0756Ti0.0084P0.1513O0.6050,Li2.8333Al0.3333Sb1.5Ti0.1667P3O12,12.787092,0.21120997346556653
Li0.1429Al0.0252Sb0.0672Ti0.0084P0.1513O0.6050,Li2.8333Al0.5Sb1.3333Ti0.1667P3O12,14.191538,0.32593850709096234
Li0.1429Al0.0420Sb0.0504Ti0.0084P0.1513O0.6050,Li2.8333Al0.8333Sb1.0Ti0.1667P3O12,14.191538,0.4958201620976386
Li0.1429Al0.0504Sb0.0420Ti0.0084P0.1513O0.6050,Li2.8333Al1.0Sb0.8333Ti0.1667P3O12,14.191538,0.2522523396352529
Li0.1429Al0.0672Sb0.0252Ti0.0084P0.1513O0.6050,Li2.8333Al1.3333Sb0.5Ti0.1667P3O12,13.944567,0.20183844005555826
Li0.1429Al0.0756Sb0.0168Ti0.0084P0.1513O0.6050,Li2.8333Al1.5Sb0.3333Ti0.1667P3O12,13.9618435,0.1639998731003882
Li0.1429Al0.0924Sb0.0000Ti0.0084P0.1513O0.6050,Li2.8333Al1.8333Sb0.0Ti0.1667P3O12,13.018343,
Li0.1500Al0.0000Sb0.1000Ti0.0000P0.1500O0.6000,Li3.0Al0.0Sb2.0Ti0.0P3O12,16.133144,
Li0.1500Al0.0083Sb0.0917Ti0.0000P0.1500O0.6000,Li3.0Al0.1667Sb1.8333Ti0.0P3O12,16.133144,
Li0.1500Al0.0167Sb0.0833Ti0.0000P0.1500O0.6000,Li3.0Al0.3333Sb1.6667Ti0.0P3O12,16.133144,
Li0.1500Al0.0250Sb0.0750Ti0.0000P0.1500O0.6000,Li3.0Al0.5Sb1.5Ti0.0P3O12,16.243801,
Li0.1500Al0.0333Sb0.0667Ti0.0000P0.1500O0.6000,Li3.0Al0.6667Sb1.3333Ti0.0P3O12,16.243801,
Li0.1500Al0.0417Sb0.0583Ti0.0000P0.1500O0.6000,Li3.0Al0.8333Sb1.1667Ti0.0P3O12,16.243801,
Li0.1500Al0.0500Sb0.0500Ti0.0000P0.1500O0.6000,Li3.0Al1.0Sb1.0Ti0.0P3O12,16.243801,
Li0.1500Al0.0583Sb0.0417Ti0.0000P0.1500O0.6000,Li3.0Al1.1667Sb0.8333Ti0.0P3O12,16.243801,
Li0.1500Al0.0667Sb0.0333Ti0.0000P0.1500O0.6000,Li3.0Al1.3333Sb0.6667Ti0.0P3O12,15.996836,
Li0.1500Al0.0750Sb0.0250Ti0.0000P0.1500O0.6000,Li3.0Al1.5Sb0.5Ti0.0P3O12,15.996836,
Li0.1500Al0.0833Sb0.0167Ti0.0000P0.1500O0.6000,Li3.0Al1.6667Sb0.3333Ti0.0P3O12,16.014114,
Li0.1500Al0.0917Sb0.0083Ti0.0000P0.1500O0.6000,Li3.0Al1.8333Sb0.1667Ti0.0P3O12,15.070612,
Li0.1500Al0.1000Sb0.0000Ti0.0000P0.1500O0.6000,Li3.0Al2.0Sb0.0Ti0.0P3O12,15.867943,
Li0.0556Al0.0000Sc0.0000Ti0.1111P0.1667O0.6667,Li1.0Al0.0Sc0.0Ti2.0P3O12,7.7087817,
Li0.0642Al0.0000Sc0.0092Ti0.1009P0.1651O0.6605,Li1.1667Al0.0Sc0.1667Ti1.8333P3O12,8.985445,
Li0.0642Al0.0092Sc0.0000Ti0.1009P0.1651O0.6605,Li1.1667Al0.1667Sc0.0Ti1.8333P3O12,7.7087817,
Li0.0727Al0.0000Sc0.0182Ti0.0909P0.1636O0.6545,Li1.3333Al0.0Sc0.3333Ti1.6667P3O12,11.915219,
Li0.0727Al0.0182Sc0.0000Ti0.0909P0.1636O0.6545,Li1.3333Al0.3333Sc0.0Ti1.6667P3O12,9.113234,
Li0.0811Al0.0000Sc0.0270Ti0.0811P0.1622O0.6486,Li1.5Al0.0Sc0.5Ti1.5P3O12,6.105611,
Li0.0811Al0.0090Sc0.0180Ti0.0811P0.1622O0.6486,Li1.5Al0.1667Sc0.3333Ti1.5P3O12,11.957242,1.0840497160075606
Li0.0811Al0.0180Sc0.0090Ti0.0811P0.1622O0.6486,Li1.5Al0.3333Sc0.1667Ti1.5P3O12,10.431916,2.908675601543227
Li0.0811Al0.0270Sc0.0000Ti0.0811P0.1622O0.6486,Li1.5Al0.5Sc0.0Ti1.5P3O12,9.155256,
Li0.0893Al0.0000Sc0.0357Ti0.0714P0.1607O0.6429,Li1.6667Al0.0Sc0.6667Ti1.3333P3O12,6.484139,
Li0.0893Al0.0089Sc0.0268Ti0.0714P0.1607O0.6429,Li1.6667Al0.1667Sc0.5Ti1.3333P3O12,6.484139,0.9025440677044277
Li0.0893Al0.0268Sc0.0089Ti0.0714P0.1607O0.6429,Li1.6667Al0.5Sc0.1667Ti1.3333P3O12,10.810445,4.037246809507059
Li0.0893Al0.0357Sc0.0000Ti0.0714P0.1607O0.6429,Li1.6667Al0.6667Sc0.0Ti1.3333P3O12,9.533785,
Li0.0973Al0.0000Sc0.0442Ti0.0619P0.1593O0.6372,Li1.8333Al0.0Sc0.8333Ti1.1667P3O12,6.484139,
Li0.0973Al0.0177Sc0.0265Ti0.0619P0.1593O0.6372,Li1.8333Al0.3333Sc0.5Ti1.1667P3O12,9.354741,1.8250592152835832
Li0.0973Al0.0265Sc0.0177Ti0.0619P0.1593O0.6372,Li1.8333Al0.5Sc0.3333Ti1.1667P3O12,13.740217,3.0693133969514443
Li0.0973Al0.0442Sc0.0000Ti0.0619P0.1593O0.6372,Li1.8333Al0.8333Sc0.0Ti1.1667P3O12,9.533785,
Li0.1053Al0.0000Sc0.0526Ti0.0526P0.1579O0.6316,Li2.0Al0.0Sc1.0Ti1.0P3O12,6.484139,
Li0.1053Al0.0088Sc0.0439Ti0.0526P0.1579O0.6316,Li2.0Al0.1667Sc0.8333Ti1.0P3O12,6.484139,0.7199560805639122
Li0.1053Al0.0175Sc0.0351Ti0.0526P0.1579O0.6316,Li2.0Al0.3333Sc0.6667Ti1.0P3O12,6.484139,1.608193883441392
Li0.1053Al0.0263Sc0.0263Ti0.0526P0.1579O0.6316,Li2.0Al0.5Sc0.5Ti1.0P3O12,9.354741,2.6058381442885894
Li0.1053Al0.0351Sc0.0175Ti0.0526P0.1579O0.6316,Li2.0Al0.6667Sc0.3333Ti1.0P3O12,13.740217,3.7895615302500296
Li0.1053Al0.0439Sc0.0088Ti0.0526P0.1579O0.6316,Li2.0Al0.8333Sc0.1667Ti1.0P3O12,10.810445,5.629408570839344
Li0.1053Al0.0526Sc0.0000Ti0.0526P0.1579O0.6316,Li2.0Al1.0Sc0.0Ti1.0P3O12,9.533785,
Li0.1130Al0.0000Sc0.0609Ti0.0435P0.1565O0.6261,Li2.1667Al0.0Sc1.1667Ti0.8333P3O12,6.484139,
Li0.1130Al0.0087Sc0.0522Ti0.0435P0.1565O0.6261,Li2.1667Al0.1667Sc1.0Ti0.8333P3O12,6.484139,0.17206810230130204
Li0.1130Al0.0261Sc0.0348Ti0.0435P0.1565O0.6261,Li2.1667Al0.5Sc0.6667Ti0.8333P3O12,9.354741,0.7959662289606121
Li0.1130Al0.0348Sc0.0261Ti0.0435P0.1565O0.6261,Li2.1667Al0.6667Sc0.5Ti0.8333P3O12,9.354741,1.138796998980247
Li0.1130Al0.0522Sc0.0087Ti0.0435P0.1565O0.6261,Li2.1667Al1.0Sc0.1667Ti0.8333P3O12,10.810445,0.078026040891747
Li0.1130Al0.0609Sc0.0000Ti0.0435P0.1565O0.6261,Li2.1667Al1.1667Sc0.0Ti0.8333P3O12,9.286814,
Li0.1207Al0.0000Sc0.0690Ti0.0345P0.1552O0.6207,Li2.3333Al0.0Sc1.3333Ti0.6667P3O12,6.484139,
Li0.1207Al0.0172Sc0.0517Ti0.0345P0.1552O0.6207,Li2.3333Al0.3333Sc1.0Ti0.6667P3O12,6.484139,0.4741918691864849
Li0.1207Al0.0259Sc0.0431Ti0.0345P0.1552O0.6207,Li2.3333Al0.5Sc0.8333Ti0.6667P3O12,9.354741,0.6688945785938503
Li0.1207Al0.0431Sc0.0259Ti0.0345P0.1552O0.6207,Li2.3333Al0.8333Sc0.5Ti0.6667P3O12,8.923294,1.2292491085147084
Li0.1207Al0.0517Sc0.0172Ti0.0345P0.1552O0.6207,Li2.3333Al1.0Sc0.3333Ti0.6667P3O12,13.740217,0.10565191711893977
Li0.1207Al0.0690Sc0.0000Ti0.0345P0.1552O0.6207,Li2.3333Al1.3333Sc0.0Ti0.6667P3O12,9.286814,
Li0.1282Al0.0000Sc0.0769Ti0.0256P0.1538O0.6154,Li2.5Al0.0Sc1.5Ti0.5P3O12,6.484139,
Li0.1282Al0.0085Sc0.0684Ti0.0256P0.1538O0.6154,Li2.5Al0.1667Sc1.3333Ti0.5P3O12,6.484139,0.2190126106269335
Li0.1282Al0.0171Sc0.0598Ti0.0256P0.1538O0.6154,Li2.5Al0.3333Sc1.1667Ti0.5P3O12,6.484139,0.5305833506618495
Li0.1282Al0.0256Sc0.0513Ti0.0256P0.1538O0.6154,Li2.5Al0.5Sc1.0Ti0.5P3O12,9.354741,0.7881243813293974
Li0.1282Al0.0342Sc0.0427Ti0.0256P0.1538O0.6154,Li2.5Al0.6667Sc0.8333Ti0.5P3O12,9.354741,0.7659767596691189
Li0.1282Al0.0427Sc0.0342Ti0.0256P0.1538O0.6154,Li2.5Al0.8333Sc0.6667Ti0.5P3O12,8.923294,0.9873449904365192
Li0.1282Al0.0513Sc0.0256Ti0.0256P0.1538O0.6154,Li2.5Al1.0Sc0.5Ti0.5P3O12,8.923294,0.13137778303796963
Li0.1282Al0.0598Sc0.0171Ti0.0256P0.1538O0.6154,Li2.5Al1.1667Sc0.3333Ti0.5P3O12,13.493246,0.11716144355023642
Li0.1282Al0.0684Sc0.0085Ti0.0256P0.1538O0.6154,Li2.5Al1.3333Sc0.1667Ti0.5P3O12,10.563475,0.09013156250813358
Li0.1282Al0.0769Sc0.0000Ti0.0256P0.1538O0.6154,Li2.5Al1.5Sc0.0Ti0.5P3O12,9.286814,
Li0.1356Al0.0000Sc0.0847Ti0.0169P0.1525O0.6102,Li2.6667Al0.0Sc1.6667Ti0.3333P3O12,6.484139,
Li0.1356Al0.0085Sc0.0763Ti0.0169P0.1525O0.6102,Li2.6667Al0.1667Sc1.5Ti0.3333P3O12,6.484139,0.27479145839012564
Li0.1356Al0.0254Sc0.0593Ti0.0169P0.1525O0.6102,Li2.6667Al0.5Sc1.1667Ti0.3333P3O12,9.354741,0.9203323205525691
Li0.1356Al0.0339Sc0.0508Ti0.0169P0.1525O0.6102,Li2.6667Al0.6667Sc1.0Ti0.3333P3O12,9.354741,1.1413844092386913
Li0.1356Al0.0508Sc0.0339Ti0.0169P0.1525O0.6102,Li2.6667Al1.0Sc0.6667Ti0.3333P3O12,8.923294,0.16987500401300049
Li0.1356Al0.0593Sc0.0254Ti0.0169P0.1525O0.6102,Li2.6667Al1.1667Sc0.5Ti0.3333P3O12,8.676324,0.1565945968298737
Li0.1356Al0.0763Sc0.0085Ti0.0169P0.1525O0.6102,Li2.6667Al1.5Sc0.1667Ti0.3333P3O12,10.563475,0.11024511428306412
Li0.1356Al0.0847Sc0.0000Ti0.0169P0.1525O0.6102,Li2.6667Al1.6667Sc0.0Ti0.3333P3O12,9.286814,
Li0.1429Al0.0000Sc0.0924Ti0.0084P0.1513O0.6050,Li2.8333Al0.0Sc1.8333Ti0.1667P3O12,10.380352,
Li0.1429Al0.0168Sc0.0756Ti0.0084P0.1513O0.6050,Li2.8333Al0.3333Sc1.5Ti0.1667P3O12,10.215678,0.8442878607668318
Li0.1429Al0.0252Sc0.0672Ti0.0084P0.1513O0.6050,Li2.8333Al0.5Sc1.3333Ti0.1667P3O12,13.086271,1.2311549597537736
Li0.1429Al0.0420Sc0.0504Ti0.0084P0.1513O0.6050,Li2.8333Al0.8333Sc1.0Ti0.1667P3O12,12.654826,1.732640636853948
Li0.1429Al0.0504Sc0.0420Ti0.0084P0.1513O0.6050,Li2.8333Al1.0Sc0.8333Ti0.1667P3O12,12.654826,0.2668798494701624
Li0.1429Al0.0672Sc0.0252Ti0.0084P0.1513O0.6050,Li2.8333Al1.3333Sc0.5Ti0.1667P3O12,12.407855,0.23215203021010633
Li0.1429Al0.0756Sc0.0168Ti0.0084P0.1513O0.6050,Li2.8333Al1.5Sc0.3333Ti0.1667P3O12,17.224771,0.19932979908020834
Li0.1429Al0.0924Sc0.0000Ti0.0084P0.1513O0.6050,Li2.8333Al1.8333Sc0.0Ti0.1667P3O12,13.018343,
Li0.1500Al0.0000Sc0.1000Ti0.0000P0.1500O0.6000,Li3.0Al0.0Sc2.0Ti0.0P3O12,11.964293,
Li0.1500Al0.0083Sc0.0917Ti0.0000P0.1500O0.6000,Li3.0Al0.1667Sc1.8333Ti0.0P3O12,11.964293,
Li0.1500Al0.0167Sc0.0833Ti0.0000P0.1500O0.6000,Li3.0Al0.3333Sc1.6667Ti0.0P3O12,11.799619,
Li0.1500Al0.0250Sc0.0750Ti0.0000P0.1500O0.6000,Li3.0Al0.5Sc1.5Ti0.0P3O12,13.376425,
Li0.1500Al0.0333Sc0.0667Ti0.0000P0.1500O0.6000,Li3.0Al0.6667Sc1.3333Ti0.0P3O12,13.376425,
Li0.1500Al0.0417Sc0.0583Ti0.0000P0.1500O0.6000,Li3.0Al0.8333Sc1.1667Ti0.0P3O12,12.94498,
Li0.1500Al0.0500Sc0.0500Ti0.0000P0.1500O0.6000,Li3.0Al1.0Sc1.0Ti0.0P3O12,12.94498,
Li0.1500Al0.0583Sc0.0417Ti0.0000P0.1500O0.6000,Li3.0Al1.1667Sc0.8333Ti0.0P3O12,12.94498,
Li0.1500Al0.0667Sc0.0333Ti0.0000P0.1500O0.6000,Li3.0Al1.3333Sc0.6667Ti0.0P3O12,12.698009,
Li0.1500Al0.0750Sc0.0250Ti0.0000P0.1500O0.6000,Li3.0Al1.5Sc0.5Ti0.0P3O12,12.698009,
Li0.1500Al0.0833Sc0.0167Ti0.0000P0.1500O0.6000,Li3.0Al1.6667Sc0.3333Ti0.0P3O12,17.514925,
Li0.1500Al0.0917Sc0.0083Ti0.0000P0.1500O0.6000,Li3.0Al1.8333Sc0.1667Ti0.0P3O12,15.677731,
Li0.1500Al0.1000Sc0.0000Ti0.0000P0.1500O0.6000,Li3.0Al2.0Sc0.0Ti0.0P3O12,15.867943,
Li0.0556Al0.0000Y0.0000Ti0.1111P0.1667O0.6667,Li1.0Al0.0Y0.0Ti2.0P3O12,7.7087817,
Li0.0642Al0.0000Y0.0092Ti0.1009P0.1651O0.6605,Li1.1667Al0.0Y0.1667Ti1.8333P3O12,7.7087817,
Li0.0642Al0.0092Y0.0000Ti0.1009P0.1651O0.6605,Li1.1667Al0.1667Y0.0Ti1.8333P3O12,7.7087817,
Li0.0727Al0.0000Y0.0182Ti0.0909P0.1636O0.6545,Li1.3333Al0.0Y0.3333Ti1.6667P3O12,7.8326178,
Li0.0727Al0.0182Y0.0000Ti0.0909P0.1636O0.6545,Li1.3333Al0.3333Y0.0Ti1.6667P3O12,9.113234,
Li0.0811Al0.0000Y0.0270Ti0.0811P0.1622O0.6486,Li1.5Al0.0Y0.5Ti1.5P3O12,7.874641,
Li0.0811Al0.0090Y0.0180Ti0.0811P0.1622O0.6486,Li1.5Al0.1667Y0.3333Ti1.5P3O12,7.874641,0.7845423012333524
Li0.0811Al0.0180Y0.0090Ti0.0811P0.1622O0.6486,Li1.5Al0.3333Y0.1667Ti1.5P3O12,9.155256,2.297026470756006
Li0.0811Al0.0270Y0.0000Ti0.0811P0.1622O0.6486,Li1.5Al0.5Y0.0Ti1.5P3O12,9.155256,
Li0.0893Al0.0000Y0.0357Ti0.0714P0.1607O0.6429,Li1.6667Al0.0Y0.6667Ti1.3333P3O12,8.253172,
Li0.0893Al0.0089Y0.0268Ti0.0714P0.1607O0.6429,Li1.6667Al0.1667Y0.5Ti1.3333P3O12,8.253172,0.6179704420746047
Li0.0893Al0.0268Y0.0089Ti0.0714P0.1607O0.6429,Li1.6667Al0.5Y0.1667Ti1.3333P3O12,9.533785,3.225842430331575
Li0.0893Al0.0357Y0.0000Ti0.0714P0.1607O0.6429,Li1.6667Al0.6667Y0.0Ti1.3333P3O12,9.533785,
Li0.0973Al0.0000Y0.0442Ti0.0619P0.1593O0.6372,Li1.8333Al0.0Y0.8333Ti1.1667P3O12,8.253172,
Li0.0973Al0.0177Y0.0265Ti0.0619P0.1593O0.6372,Li1.8333Al0.3333Y0.5Ti1.1667P3O12,9.657621,1.4573223384453433
Li0.0973Al0.0265Y0.0177Ti0.0619P0.1593O0.6372,Li1.8333Al0.5Y0.3333Ti1.1667P3O12,9.657621,2.487765335097522
Li0.0973Al0.0442Y0.0000Ti0.0619P0.1593O0.6372,Li1.8333Al0.8333Y0.0Ti1.1667P3O12,9.533785,
Li0.1053Al0.0000Y0.0526Ti0.0526P0.1579O0.6316,Li2.0Al0.0Y1.0Ti1.0P3O12,8.253172,
Li0.1053Al0.0088Y0.0439Ti0.0526P0.1579O0.6316,Li2.0Al0.1667Y0.8333Ti1.0P3O12,8.253172,0.4469091042288684
Li0.1053Al0.0175Y0.0351Ti0.0526P0.1579O0.6316,Li2.0Al0.3333Y0.6667Ti1.0P3O12,8.253172,1.2552709490796534
Li0.1053Al0.0263Y0.0263Ti0.0526P0.1579O0.6316,Li2.0Al0.5Y0.5Ti1.0P3O12,9.657621,2.1422547033329824
Li0.1053Al0.0351Y0.0175Ti0.0526P0.1579O0.6316,Li2.0Al0.6667Y0.3333Ti1.0P3O12,9.657621,3.0553648356341614
Li0.1053Al0.0439Y0.0088Ti0.0526P0.1579O0.6316,Li2.0Al0.8333Y0.1667Ti1.0P3O12,9.533785,4.510301363748467
Li0.1053Al0.0526Y0.0000Ti0.0526P0.1579O0.6316,Li2.0Al1.0Y0.0Ti1.0P3O12,9.533785,
Li0.1130Al0.0000Y0.0609Ti0.0435P0.1565O0.6261,Li2.1667Al0.0Y1.1667Ti0.8333P3O12,7.013641,
Li0.1130Al0.0087Y0.0522Ti0.0435P0.1565O0.6261,Li2.1667Al0.1667Y1.0Ti0.8333P3O12,8.253172,0.05660860868326307
Li0.1130Al0.0261Y0.0348Ti0.0435P0.1565O0.6261,Li2.1667Al0.5Y0.6667Ti0.8333P3O12,9.657621,0.1799324730165683
Li0.1130Al0.0348Y0.0261Ti0.0435P0.1565O0.6261,Li2.1667Al0.6667Y0.5Ti0.8333P3O12,9.657621,0.2670393019033845
Li0.1130Al0.0522Y0.0087Ti0.0435P0.1565O0.6261,Li2.1667Al1.0Y0.1667Ti0.8333P3O12,9.533785,0.04757357407226585
Li0.1130Al0.0609Y0.0000Ti0.0435P0.1565O0.6261,Li2.1667Al1.1667Y0.0Ti0.8333P3O12,9.286814,
Li0.1207Al0.0000Y0.0690Ti0.0345P0.1552O0.6207,Li2.3333Al0.0Y1.3333Ti0.6667P3O12,7.013641,
Li0.1207Al0.0172Y0.0517Ti0.0345P0.1552O0.6207,Li2.3333Al0.3333Y1.0Ti0.6667P3O12,8.253172,0.16036456258144038
Li0.1207Al0.0259Y0.0431Ti0.0345P0.1552O0.6207,Li2.3333Al0.5Y0.8333Ti0.6667P3O12,9.657621,0.13835330624927972
Li0.1207Al0.0431Y0.0259Ti0.0345P0.1552O0.6207,Li2.3333Al0.8333Y0.5Ti0.6667P3O12,9.657621,0.2774103274615666
Li0.1207Al0.0517Y0.0172Ti0.0345P0.1552O0.6207,Li2.3333Al1.0Y0.3333Ti0.6667P3O12,9.657621,0.047138017684703
Li0.1207Al0.0690Y0.0000Ti0.0345P0.1552O0.6207,Li2.3333Al1.3333Y0.0Ti0.6667P3O12,9.286814,
Li0.1282Al0.0000Y0.0769Ti0.0256P0.1538O0.6154,Li2.5Al0.0Y1.5Ti0.5P3O12,7.013641,
Li0.1282Al0.0085Y0.0684Ti0.0256P0.1538O0.6154,Li2.5Al0.1667Y1.3333Ti0.5P3O12,7.013641,0.07581364738589663
Li0.1282Al0.0171Y0.0598Ti0.0256P0.1538O0.6154,Li2.5Al0.3333Y1.1667Ti0.5P3O12,7.0560336,0.18703518088154622
Li0.1282Al0.0256Y0.0513Ti0.0256P0.1538O0.6154,Li2.5Al0.5Y1.0Ti0.5P3O12,9.657621,0.28904733595896354
Li0.1282Al0.0342Y0.0427Ti0.0256P0.1538O0.6154,Li2.5Al0.6667Y0.8333Ti0.5P3O12,9.657621,0.15226823721227317
Li0.1282Al0.0427Y0.0342Ti0.0256P0.1538O0.6154,Li2.5Al0.8333Y0.6667Ti0.5P3O12,9.657621,0.20796354120751667
Li0.1282Al0.0513Y0.0256Ti0.0256P0.1538O0.6154,Li2.5Al1.0Y0.5Ti0.5P3O12,9.657621,0.053011139781229684
Li0.1282Al0.0598Y0.0171Ti0.0256P0.1538O0.6154,Li2.5Al1.1667Y0.3333Ti0.5P3O12,9.410651,0.05114252851719115
Li0.1282Al0.0684Y0.0085Ti0.0256P0.1538O0.6154,Li2.5Al1.3333Y0.1667Ti0.5P3O12,9.286814,0.05051625292381331
Li0.1282Al0.0769Y0.0000Ti0.0256P0.1538O0.6154,Li2.5Al1.5Y0.0Ti0.5P3O12,9.286814,
Li0.1356Al0.0000Y0.0847Ti0.0169P0.1525O0.6102,Li2.6667Al0.0Y1.6667Ti0.3333P3O12,7.013641,
Li0.1356Al0.0085Y0.0763Ti0.0169P0.1525O0.6102,Li2.6667Al0.1667Y1.5Ti0.3333P3O12,7.013641,0.09818764573815307
Li0.1356Al0.0254Y0.0593Ti0.0169P0.1525O0.6102,Li2.6667Al0.5Y1.1667Ti0.3333P3O12,8.460483,0.36430491035122675
Li0.1356Al0.0339Y0.0508Ti0.0169P0.1525O0.6102,Li2.6667Al0.6667Y1.0Ti0.3333P3O12,9.657621,0.463627731473302
Li0.1356Al0.0508Y0.0339Ti0.0169P0.1525O0.6102,Li2.6667Al1.0Y0.6667Ti0.3333P3O12,9.657621,0.06336575444051037
Li0.1356Al0.0593Y0.0254Ti0.0169P0.1525O0.6102,Li2.6667Al1.1667Y0.5Ti0.3333P3O12,9.410651,0.061544039901425054
Li0.1356Al0.0763Y0.0085Ti0.0169P0.1525O0.6102,Li2.6667Al1.5Y0.1667Ti0.3333P3O12,9.286814,0.056198456530754545
Li0.1356Al0.0847Y0.0000Ti0.0169P0.1525O0.6102,Li2.6667Al1.6667Y0.0Ti0.3333P3O12,9.286814,
Li0.1429Al0.0000Y0.0924Ti0.0084P0.1513O0.6050,Li2.8333Al0.0Y1.8333Ti0.1667P3O12,10.745177,
Li0.1429Al0.0168Y0.0756Ti0.0084P0.1513O0.6050,Li2.8333Al0.3333Y1.5Ti0.1667P3O12,10.745177,0.35546726114942745
Li0.1429Al0.0252Y0.0672Ti0.0084P0.1513O0.6050,Li2.8333Al0.5Y1.3333Ti0.1667P3O12,12.149623,0.528133541266362
Li0.1429Al0.0420Y0.0504Ti0.0084P0.1513O0.6050,Li2.8333Al0.8333Y1.0Ti0.1667P3O12,13.389151,0.7683622082094237
Li0.1429Al0.0504Y0.0420Ti0.0084P0.1513O0.6050,Li2.8333Al1.0Y0.8333Ti0.1667P3O12,13.389151,0.08787605338096849
Li0.1429Al0.0672Y0.0252Ti0.0084P0.1513O0.6050,Li2.8333Al1.3333Y0.5Ti0.1667P3O12,13.14218,0.08155048420460366
Li0.1429Al0.0756Y0.0168Ti0.0084P0.1513O0.6050,Li2.8333Al1.5Y0.3333Ti0.1667P3O12,13.14218,0.07739992502589488
Li0.1429Al0.0924Y0.0000Ti0.0084P0.1513O0.6050,Li2.8333Al1.8333Y0.0Ti0.1667P3O12,13.018343,
Li0.1500Al0.0000Y0.1000Ti0.0000P0.1500O0.6000,Li3.0Al0.0Y2.0Ti0.0P3O12,14.091233,
Li0.1500Al0.0083Y0.0917Ti0.0000P0.1500O0.6000,Li3.0Al0.1667Y1.8333Ti0.0P3O12,14.091233,
Li0.1500Al0.0167Y0.0833Ti0.0000P0.1500O0.6000,Li3.0Al0.3333Y1.6667Ti0.0P3O12,14.091233,
Li0.1500Al0.0250Y0.0750Ti0.0000P0.1500O0.6000,Li3.0Al0.5Y1.5Ti0.0P3O12,14.201891,
Li0.1500Al0.0333Y0.0667Ti0.0000P0.1500O0.6000,Li3.0Al0.6667Y1.3333Ti0.0P3O12,14.201891,
Li0.1500Al0.0417Y0.0583Ti0.0000P0.1500O0.6000,Li3.0Al0.8333Y1.1667Ti0.0P3O12,15.441419,
Li0.1500Al0.0500Y0.0500Ti0.0000P0.1500O0.6000,Li3.0Al1.0Y1.0Ti0.0P3O12,15.441419,
Li0.1500Al0.0583Y0.0417Ti0.0000P0.1500O0.6000,Li3.0Al1.1667Y0.8333Ti0.0P3O12,15.441419,
Li0.1500Al0.0667Y0.0333Ti0.0000P0.1500O0.6000,Li3.0Al1.3333Y0.6667Ti0.0P3O12,15.1944475,
Li0.1500Al0.0750Y0.0250Ti0.0000P0.1500O0.6000,Li3.0Al1.5Y0.5Ti0.0P3O12,15.1944475,
Li0.1500Al0.0833Y0.0167Ti0.0000P0.1500O0.6000,Li3.0Al1.6667Y0.3333Ti0.0P3O12,15.1944475,
Li0.1500Al0.0917Y0.0083Ti0.0000P0.1500O0.6000,Li3.0Al1.8333Y0.1667Ti0.0P3O12,15.070612,
Li0.1500Al0.1000Y0.0000Ti0.0000P0.1500O0.6000,Li3.0Al2.0Y0.0Ti0.0P3O12,15.867943,
Li0.0556Al0.0000Hf0.0000Ti0.1111P0.1667O0.6667,Li1.0Al0.0Hf0.0Ti2.0P3O12,7.7087817,
Li0.0642Al0.0000Hf0.0092Ti0.1009P0.1651O0.6605,Li1.1667Al0.0Hf0.1667Ti1.8333P3O12,7.7087817,
Li0.0642Al0.0092Hf0.0000Ti0.1009P0.1651O0.6605,Li1.1667Al0.1667Hf0.0Ti1.8333P3O12,7.7087817,
Li0.0727Al0.0000Hf0.0182Ti0.0909P0.1636O0.6545,Li1.3333Al0.0Hf0.3333Ti1.6667P3O12,7.7087817,
Li0.0727Al0.0182Hf0.0000Ti0.0909P0.1636O0.6545,Li1.3333Al0.3333Hf0.0Ti1.6667P3O12,9.113234,
Li0.0811Al0.0000Hf0.0270Ti0.0811P0.1622O0.6486,Li1.5Al0.0Hf0.5Ti1.5P3O12,7.750805,
Li0.0811Al0.0090Hf0.0180Ti0.0811P0.1622O0.6486,Li1.5Al0.1667Hf0.3333Ti1.5P3O12,7.750805,0.05108304168958338
Li0.0811Al0.0180Hf0.0090Ti0.0811P0.1622O0.6486,Li1.5Al0.3333Hf0.1667Ti1.5P3O12,9.155256,0.20151658695685618
Li0.0811Al0.0270Hf0.0000Ti0.0811P0.1622O0.6486,Li1.5Al0.5Hf0.0Ti1.5P3O12,9.155256,
Li0.0893Al0.0000Hf0.0357Ti0.0714P0.1607O0.6429,Li1.6667Al0.0Hf0.6667Ti1.3333P3O12,8.1233835,
Li0.0893Al0.0089Hf0.0268Ti0.0714P0.1607O0.6429,Li1.6667Al0.1667Hf0.5Ti1.3333P3O12,8.129335,0.03888138324502456
Li0.0893Al0.0268Hf0.0089Ti0.0714P0.1607O0.6429,Li1.6667Al0.5Hf0.1667Ti1.3333P3O12,9.533785,0.3152377020344071
Li0.0893Al0.0357Hf0.0000Ti0.0714P0.1607O0.6429,Li1.6667Al0.6667Hf0.0Ti1.3333P3O12,9.533785,
Li0.0973Al0.0000Hf0.0442Ti0.0619P0.1593O0.6372,Li1.8333Al0.0Hf0.8333Ti1.1667P3O12,8.1233835,
Li0.0973Al0.0177Hf0.0265Ti0.0619P0.1593O0.6372,Li1.8333Al0.3333Hf0.5Ti1.1667P3O12,9.533785,0.1076471283867545
Li0.0973Al0.0265Hf0.0177Ti0.0619P0.1593O0.6372,Li1.8333Al0.5Hf0.3333Ti1.1667P3O12,9.533785,0.2200601760182305
Li0.0973Al0.0442Hf0.0000Ti0.0619P0.1593O0.6372,Li1.8333Al0.8333Hf0.0Ti1.1667P3O12,9.533785,
Li0.1053Al0.0000Hf0.0526Ti0.0526P0.1579O0.6316,Li2.0Al0.0Hf1.0Ti1.0P3O12,8.1233835,
Li0.1053Al0.0088Hf0.0439Ti0.0526P0.1579O0.6316,Li2.0Al0.1667Hf0.8333Ti1.0P3O12,8.1233835,0.027347179232679354
Li0.1053Al0.0175Hf0.0351Ti0.0526P0.1579O0.6316,Li2.0Al0.3333Hf0.6667Ti1.0P3O12,8.1233835,0.08844570152937467
Li0.1053Al0.0263Hf0.0263Ti0.0526P0.1579O0.6316,Li2.0Al0.5Hf0.5Ti1.0P3O12,9.533785,0.1734588804457567
Li0.1053Al0.0351Hf0.0175Ti0.0526P0.1579O0.6316,Li2.0Al0.6667Hf0.3333Ti1.0P3O12,9.533785,0.2885918053421626
Li0.1053Al0.0439Hf0.0088Ti0.0526P0.1579O0.6316,Li2.0Al0.8333Hf0.1667Ti1.0P3O12,9.533785,0.48768317190933513
Li0.1053Al0.0526Hf0.0000Ti0.0526P0.1579O0.6316,Li2.0Al1.0Hf0.0Ti1.0P3O12,9.533785,
Li0.1130Al0.0000Hf0.0609Ti0.0435P0.1565O0.6261,Li2.1667Al0.0Hf1.1667Ti0.8333P3O12,7.980404,
Li0.1130Al0.0087Hf0.0522Ti0.0435P0.1565O0.6261,Li2.1667Al0.1667Hf1.0Ti0.8333P3O12,8.1233835,0.011713057438911762
Li0.1130Al0.0261Hf0.0348Ti0.0435P0.1565O0.6261,Li2.1667Al0.5Hf0.6667Ti0.8333P3O12,9.530186,0.0034099965845210225
Li0.1130Al0.0348Hf0.0261Ti0.0435P0.1565O0.6261,Li2.1667Al0.6667Hf0.5Ti0.8333P3O12,9.533785,0.005083261197547615
Li0.1130Al0.0522Hf0.0087Ti0.0435P0.1565O0.6261,Li2.1667Al1.0Hf0.1667Ti0.8333P3O12,9.533785,0.0845785818599436
Li0.1130Al0.0609Hf0.0000Ti0.0435P0.1565O0.6261,Li2.1667Al1.1667Hf0.0Ti0.8333P3O12,9.286814,
Li0.1207Al0.0000Hf0.0690Ti0.0345P0.1552O0.6207,Li2.3333Al0.0Hf1.3333Ti0.6667P3O12,7.980404,
Li0.1207Al0.0172Hf0.0517Ti0.0345P0.1552O0.6207,Li2.3333Al0.3333Hf1.0Ti0.6667P3O12,8.1233835,0.020647070324439916