formula,original_formula,thermal_expansion,li ion conductivity
Li0.1282Mn0.0427Co0.0342Ti0.0256P0.1538O0.6154,Li2.5Mn0.8333Co0.6667Ti0.5P3O12,7.1790795,0.029137850587203588
Li0.1282Mn0.0513Co0.0256Ti0.0256P0.1538O0.6154,Li2.5Mn1.0Co0.5Ti0.5P3O12,7.5443654,0.7771120048385118
Li0.1282Mn0.0598Co0.0171Ti0.0256P0.1538O0.6154,Li2.5Mn1.1667Co0.3333Ti0.5P3O12,7.5443654,0.6139768254372208
Li0.1282Mn0.0684Co0.0085Ti0.0256P0.1538O0.6154,Li2.5Mn1.3333Co0.1667Ti0.5P3O12,7.5443654,0.38956055868333606
Li0.1282Mn0.0769Co0.0000Ti0.0256P0.1538O0.6154,Li2.5Mn1.5Co0.0Ti0.5P3O12,7.5443654,
Li0.1356Mn0.0000Co0.0847Ti0.0169P0.1525O0.6102,Li2.6667Mn0.0Co1.6667Ti0.3333P3O12,8.147218,
Li0.1356Mn0.0085Co0.0763Ti0.0169P0.1525O0.6102,Li2.6667Mn0.1667Co1.5Ti0.3333P3O12,8.147218,0.17292188098740996
Li0.1356Mn0.0254Co0.0593Ti0.0169P0.1525O0.6102,Li2.6667Mn0.5Co1.1667Ti0.3333P3O12,8.147218,0.30995178801217343
Li0.1356Mn0.0339Co0.0508Ti0.0169P0.1525O0.6102,Li2.6667Mn0.6667Co1.0Ti0.3333P3O12,8.147218,0.34807700143379733
Li0.1356Mn0.0508Co0.0339Ti0.0169P0.1525O0.6102,Li2.6667Mn1.0Co0.6667Ti0.3333P3O12,7.5443654,0.959857102907576
Li0.1356Mn0.0593Co0.0254Ti0.0169P0.1525O0.6102,Li2.6667Mn1.1667Co0.5Ti0.3333P3O12,7.5443654,0.8446554935281098
Li0.1356Mn0.0763Co0.0085Ti0.0169P0.1525O0.6102,Li2.6667Mn1.5Co0.1667Ti0.3333P3O12,7.5443654,0.439528954474714
Li0.1356Mn0.0847Co0.0000Ti0.0169P0.1525O0.6102,Li2.6667Mn1.6667Co0.0Ti0.3333P3O12,7.480082,
Li0.1429Mn0.0000Co0.0924Ti0.0084P0.1513O0.6050,Li2.8333Mn0.0Co1.8333Ti0.1667P3O12,11.87875,
Li0.1429Mn0.0168Co0.0756Ti0.0084P0.1513O0.6050,Li2.8333Mn0.3333Co1.5Ti0.1667P3O12,11.87875,0.33114056007954235
Li0.1429Mn0.0252Co0.0672Ti0.0084P0.1513O0.6050,Li2.8333Mn0.5Co1.3333Ti0.1667P3O12,11.87875,0.3809353849570937
Li0.1429Mn0.0420Co0.0504Ti0.0084P0.1513O0.6050,Li2.8333Mn0.8333Co1.0Ti0.1667P3O12,9.07545,0.45120745646201715
Li0.1429Mn0.0504Co0.0420Ti0.0084P0.1513O0.6050,Li2.8333Mn1.0Co0.8333Ti0.1667P3O12,9.440734,1.1744059908780644
Li0.1429Mn0.0672Co0.0252Ti0.0084P0.1513O0.6050,Li2.8333Mn1.3333Co0.5Ti0.1667P3O12,9.4228525,0.9589380312869991
Li0.1429Mn0.0756Co0.0168Ti0.0084P0.1513O0.6050,Li2.8333Mn1.5Co0.3333Ti0.1667P3O12,9.4228525,0.7874354488356018
Li0.1429Mn0.0924Co0.0000Ti0.0084P0.1513O0.6050,Li2.8333Mn1.8333Co0.0Ti0.1667P3O12,9.358569,
Li0.1500Mn0.0000Co0.1000Ti0.0000P0.1500O0.6000,Li3.0Mn0.0Co2.0Ti0.0P3O12,15.21023,
Li0.1500Mn0.0083Co0.0917Ti0.0000P0.1500O0.6000,Li3.0Mn0.1667Co1.8333Ti0.0P3O12,15.224806,
Li0.1500Mn0.0167Co0.0833Ti0.0000P0.1500O0.6000,Li3.0Mn0.3333Co1.6667Ti0.0P3O12,15.224806,
Li0.1500Mn0.0250Co0.0750Ti0.0000P0.1500O0.6000,Li3.0Mn0.5Co1.5Ti0.0P3O12,15.224806,
Li0.1500Mn0.0333Co0.0667Ti0.0000P0.1500O0.6000,Li3.0Mn0.6667Co1.3333Ti0.0P3O12,15.224806,
Li0.1500Mn0.0417Co0.0583Ti0.0000P0.1500O0.6000,Li3.0Mn0.8333Co1.1667Ti0.0P3O12,12.421507,
Li0.1500Mn0.0500Co0.0500Ti0.0000P0.1500O0.6000,Li3.0Mn1.0Co1.0Ti0.0P3O12,12.786792,
Li0.1500Mn0.0583Co0.0417Ti0.0000P0.1500O0.6000,Li3.0Mn1.1667Co0.8333Ti0.0P3O12,12.786792,
Li0.1500Mn0.0667Co0.0333Ti0.0000P0.1500O0.6000,Li3.0Mn1.3333Co0.6667Ti0.0P3O12,12.76891,
Li0.1500Mn0.0750Co0.0250Ti0.0000P0.1500O0.6000,Li3.0Mn1.5Co0.5Ti0.0P3O12,12.76891,
Li0.1500Mn0.0833Co0.0167Ti0.0000P0.1500O0.6000,Li3.0Mn1.6667Co0.3333Ti0.0P3O12,12.704627,
Li0.1500Mn0.0917Co0.0083Ti0.0000P0.1500O0.6000,Li3.0Mn1.8333Co0.1667Ti0.0P3O12,12.704627,
Li0.1500Mn0.1000Co0.0000Ti0.0000P0.1500O0.6000,Li3.0Mn2.0Co0.0Ti0.0P3O12,12.704627,
Li0.0556Mn0.0000Cr0.0000Ti0.1111P0.1667O0.6667,Li1.0Mn0.0Cr0.0Ti2.0P3O12,7.7087817,
Li0.0642Mn0.0000Cr0.0092Ti0.1009P0.1651O0.6605,Li1.1667Mn0.0Cr0.1667Ti1.8333P3O12,7.7087817,
Li0.0642Mn0.0092Cr0.0000Ti0.1009P0.1651O0.6605,Li1.1667Mn0.1667Cr0.0Ti1.8333P3O12,7.7087817,
Li0.0727Mn0.0000Cr0.0182Ti0.0909P0.1636O0.6545,Li1.3333Mn0.0Cr0.3333Ti1.6667P3O12,7.7087817,
Li0.0727Mn0.0182Cr0.0000Ti0.0909P0.1636O0.6545,Li1.3333Mn0.3333Cr0.0Ti1.6667P3O12,7.7087817,
Li0.0811Mn0.0000Cr0.0270Ti0.0811P0.1622O0.6486,Li1.5Mn0.0Cr0.5Ti1.5P3O12,7.750805,
Li0.0811Mn0.0090Cr0.0180Ti0.0811P0.1622O0.6486,Li1.5Mn0.1667Cr0.3333Ti1.5P3O12,7.750805,0.0996048589944378
Li0.0811Mn0.0180Cr0.0090Ti0.0811P0.1622O0.6486,Li1.5Mn0.3333Cr0.1667Ti1.5P3O12,7.750805,0.1850283938828761
Li0.0811Mn0.0270Cr0.0000Ti0.0811P0.1622O0.6486,Li1.5Mn0.5Cr0.0Ti1.5P3O12,7.750805,
Li0.0893Mn0.0000Cr0.0357Ti0.0714P0.1607O0.6429,Li1.6667Mn0.0Cr0.6667Ti1.3333P3O12,8.129335,
Li0.0893Mn0.0089Cr0.0268Ti0.0714P0.1607O0.6429,Li1.6667Mn0.1667Cr0.5Ti1.3333P3O12,8.129335,0.08618495912703622
Li0.0893Mn0.0268Cr0.0089Ti0.0714P0.1607O0.6429,Li1.6667Mn0.5Cr0.1667Ti1.3333P3O12,8.129335,0.22358429263781046
Li0.0893Mn0.0357Cr0.0000Ti0.0714P0.1607O0.6429,Li1.6667Mn0.6667Cr0.0Ti1.3333P3O12,8.129335,
Li0.0973Mn0.0000Cr0.0442Ti0.0619P0.1593O0.6372,Li1.8333Mn0.0Cr0.8333Ti1.1667P3O12,7.845156,
Li0.0973Mn0.0177Cr0.0265Ti0.0619P0.1593O0.6372,Li1.8333Mn0.3333Cr0.5Ti1.1667P3O12,8.129335,0.13102844862175614
Li0.0973Mn0.0265Cr0.0177Ti0.0619P0.1593O0.6372,Li1.8333Mn0.5Cr0.3333Ti1.1667P3O12,8.129335,0.18228323061420726
Li0.0973Mn0.0442Cr0.0000Ti0.0619P0.1593O0.6372,Li1.8333Mn0.8333Cr0.0Ti1.1667P3O12,7.1790795,
Li0.1053Mn0.0000Cr0.0526Ti0.0526P0.1579O0.6316,Li2.0Mn0.0Cr1.0Ti1.0P3O12,7.845156,
Li0.1053Mn0.0088Cr0.0439Ti0.0526P0.1579O0.6316,Li2.0Mn0.1667Cr0.8333Ti1.0P3O12,7.845156,0.0708643983097201
Li0.1053Mn0.0175Cr0.0351Ti0.0526P0.1579O0.6316,Li2.0Mn0.3333Cr0.6667Ti1.0P3O12,8.129335,0.1199153628736591
Li0.1053Mn0.0263Cr0.0263Ti0.0526P0.1579O0.6316,Li2.0Mn0.5Cr0.5Ti1.0P3O12,8.129335,0.161105071875256
Li0.1053Mn0.0351Cr0.0175Ti0.0526P0.1579O0.6316,Li2.0Mn0.6667Cr0.3333Ti1.0P3O12,8.129335,0.20444216810890944
Li0.1053Mn0.0439Cr0.0088Ti0.0526P0.1579O0.6316,Li2.0Mn0.8333Cr0.1667Ti1.0P3O12,7.1790795,0.27872359825393167
Li0.1053Mn0.0526Cr0.0000Ti0.0526P0.1579O0.6316,Li2.0Mn1.0Cr0.0Ti1.0P3O12,7.5443654,
Li0.1130Mn0.0000Cr0.0609Ti0.0435P0.1565O0.6261,Li2.1667Mn0.0Cr1.1667Ti0.8333P3O12,13.286617,
Li0.1130Mn0.0087Cr0.0522Ti0.0435P0.1565O0.6261,Li2.1667Mn0.1667Cr1.0Ti0.8333P3O12,7.845156,0.11260032914114501
Li0.1130Mn0.0261Cr0.0348Ti0.0435P0.1565O0.6261,Li2.1667Mn0.5Cr0.6667Ti0.8333P3O12,8.129335,0.029649884778144328
Li0.1130Mn0.0348Cr0.0261Ti0.0435P0.1565O0.6261,Li2.1667Mn0.6667Cr0.5Ti0.8333P3O12,8.129335,0.03508258846421835
Li0.1130Mn0.0522Cr0.0087Ti0.0435P0.1565O0.6261,Li2.1667Mn1.0Cr0.1667Ti0.8333P3O12,7.5443654,0.10386055619427184
Li0.1130Mn0.0609Cr0.0000Ti0.0435P0.1565O0.6261,Li2.1667Mn1.1667Cr0.0Ti0.8333P3O12,7.5443654,
Li0.1207Mn0.0000Cr0.0690Ti0.0345P0.1552O0.6207,Li2.3333Mn0.0Cr1.3333Ti0.6667P3O12,13.286617,
Li0.1207Mn0.0172Cr0.0517Ti0.0345P0.1552O0.6207,Li2.3333Mn0.3333Cr1.0Ti0.6667P3O12,7.845156,0.2029348318577988
Li0.1207Mn0.0259Cr0.0431Ti0.0345P0.1552O0.6207,Li2.3333Mn0.5Cr0.8333Ti0.6667P3O12,7.845156,0.027870431970522042
Li0.1207Mn0.0431Cr0.0259Ti0.0345P0.1552O0.6207,Li2.3333Mn0.8333Cr0.5Ti0.6667P3O12,7.1790795,0.03787702111067615
Li0.1207Mn0.0517Cr0.0172Ti0.0345P0.1552O0.6207,Li2.3333Mn1.0Cr0.3333Ti0.6667P3O12,7.5443654,0.21297393932346875
Li0.1207Mn0.0690Cr0.0000Ti0.0345P0.1552O0.6207,Li2.3333Mn1.3333Cr0.0Ti0.6667P3O12,7.5443654,
Li0.1282Mn0.0000Cr0.0769Ti0.0256P0.1538O0.6154,Li2.5Mn0.0Cr1.5Ti0.5P3O12,13.286617,
Li0.1282Mn0.0085Cr0.0684Ti0.0256P0.1538O0.6154,Li2.5Mn0.1667Cr1.3333Ti0.5P3O12,13.286617,0.14508611845102842
Li0.1282Mn0.0171Cr0.0598Ti0.0256P0.1538O0.6154,Li2.5Mn0.3333Cr1.1667Ti0.5P3O12,7.845156,0.2244022721567037
Li0.1282Mn0.0256Cr0.0513Ti0.0256P0.1538O0.6154,Li2.5Mn0.5Cr1.0Ti0.5P3O12,7.845156,0.27677903320832964
Li0.1282Mn0.0342Cr0.0427Ti0.0256P0.1538O0.6154,Li2.5Mn0.6667Cr0.8333Ti0.5P3O12,7.845156,0.030678494890979263
Li0.1282Mn0.0427Cr0.0342Ti0.0256P0.1538O0.6154,Li2.5Mn0.8333Cr0.6667Ti0.5P3O12,7.1790795,0.035153960062437525
Li0.1282Mn0.0513Cr0.0256Ti0.0256P0.1538O0.6154,Li2.5Mn1.0Cr0.5Ti0.5P3O12,7.5443654,0.3200626207317617
Li0.1282Mn0.0598Cr0.0171Ti0.0256P0.1538O0.6154,Li2.5Mn1.1667Cr0.3333Ti0.5P3O12,7.5443654,0.23125615684609357
Li0.1282Mn0.0684Cr0.0085Ti0.0256P0.1538O0.6154,Li2.5Mn1.3333Cr0.1667Ti0.5P3O12,7.5443654,0.1287137261688082
Li0.1282Mn0.0769Cr0.0000Ti0.0256P0.1538O0.6154,Li2.5Mn1.5Cr0.0Ti0.5P3O12,7.5443654,
Li0.1356Mn0.0000Cr0.0847Ti0.0169P0.1525O0.6102,Li2.6667Mn0.0Cr1.6667Ti0.3333P3O12,13.699678,
Li0.1356Mn0.0085Cr0.0763Ti0.0169P0.1525O0.6102,Li2.6667Mn0.1667Cr1.5Ti0.3333P3O12,13.286617,0.1737746490121379
Li0.1356Mn0.0254Cr0.0593Ti0.0169P0.1525O0.6102,Li2.6667Mn0.5Cr1.1667Ti0.3333P3O12,7.845156,0.3136445807058521
Li0.1356Mn0.0339Cr0.0508Ti0.0169P0.1525O0.6102,Li2.6667Mn0.6667Cr1.0Ti0.3333P3O12,7.845156,0.3488416146497886
Li0.1356Mn0.0508Cr0.0339Ti0.0169P0.1525O0.6102,Li2.6667Mn1.0Cr0.6667Ti0.3333P3O12,7.5443654,0.4176036212544808
Li0.1356Mn0.0593Cr0.0254Ti0.0169P0.1525O0.6102,Li2.6667Mn1.1667Cr0.5Ti0.3333P3O12,7.5443654,0.3491686702708196
Li0.1356Mn0.0763Cr0.0085Ti0.0169P0.1525O0.6102,Li2.6667Mn1.5Cr0.1667Ti0.3333P3O12,7.5443654,0.1482064842239148
Li0.1356Mn0.0847Cr0.0000Ti0.0169P0.1525O0.6102,Li2.6667Mn1.6667Cr0.0Ti0.3333P3O12,7.480082,
Li0.1429Mn0.0000Cr0.0924Ti0.0084P0.1513O0.6050,Li2.8333Mn0.0Cr1.8333Ti0.1667P3O12,17.431204,
Li0.1429Mn0.0168Cr0.0756Ti0.0084P0.1513O0.6050,Li2.8333Mn0.3333Cr1.5Ti0.1667P3O12,17.018145,0.3340874917973036
Li0.1429Mn0.0252Cr0.0672Ti0.0084P0.1513O0.6050,Li2.8333Mn0.5Cr1.3333Ti0.1667P3O12,17.018145,0.3973797498107966
Li0.1429Mn0.0420Cr0.0504Ti0.0084P0.1513O0.6050,Li2.8333Mn0.8333Cr1.0Ti0.1667P3O12,8.773392,0.4615899387942324
Li0.1429Mn0.0504Cr0.0420Ti0.0084P0.1513O0.6050,Li2.8333Mn1.0Cr0.8333Ti0.1667P3O12,9.138676,0.5516113288214008
Li0.1429Mn0.0672Cr0.0252Ti0.0084P0.1513O0.6050,Li2.8333Mn1.3333Cr0.5Ti0.1667P3O12,9.4228525,0.4125873867687061
Li0.1429Mn0.0756Cr0.0168Ti0.0084P0.1513O0.6050,Li2.8333Mn1.5Cr0.3333Ti0.1667P3O12,9.4228525,0.31068620338057806
Li0.1429Mn0.0924Cr0.0000Ti0.0084P0.1513O0.6050,Li2.8333Mn1.8333Cr0.0Ti0.1667P3O12,9.358569,
Li0.1500Mn0.0000Cr0.1000Ti0.0000P0.1500O0.6000,Li3.0Mn0.0Cr2.0Ti0.0P3O12,17.903326,
Li0.1500Mn0.0083Cr0.0917Ti0.0000P0.1500O0.6000,Li3.0Mn0.1667Cr1.8333Ti0.0P3O12,17.903326,
Li0.1500Mn0.0167Cr0.0833Ti0.0000P0.1500O0.6000,Li3.0Mn0.3333Cr1.6667Ti0.0P3O12,17.903326,
Li0.1500Mn0.0250Cr0.0750Ti0.0000P0.1500O0.6000,Li3.0Mn0.5Cr1.5Ti0.0P3O12,17.490267,
Li0.1500Mn0.0333Cr0.0667Ti0.0000P0.1500O0.6000,Li3.0Mn0.6667Cr1.3333Ti0.0P3O12,17.490267,
Li0.1500Mn0.0417Cr0.0583Ti0.0000P0.1500O0.6000,Li3.0Mn0.8333Cr1.1667Ti0.0P3O12,12.119449,
Li0.1500Mn0.0500Cr0.0500Ti0.0000P0.1500O0.6000,Li3.0Mn1.0Cr1.0Ti0.0P3O12,12.484734,
Li0.1500Mn0.0583Cr0.0417Ti0.0000P0.1500O0.6000,Li3.0Mn1.1667Cr0.8333Ti0.0P3O12,12.484734,
Li0.1500Mn0.0667Cr0.0333Ti0.0000P0.1500O0.6000,Li3.0Mn1.3333Cr0.6667Ti0.0P3O12,12.76891,
Li0.1500Mn0.0750Cr0.0250Ti0.0000P0.1500O0.6000,Li3.0Mn1.5Cr0.5Ti0.0P3O12,12.76891,
Li0.1500Mn0.0833Cr0.0167Ti0.0000P0.1500O0.6000,Li3.0Mn1.6667Cr0.3333Ti0.0P3O12,12.704627,
Li0.1500Mn0.0917Cr0.0083Ti0.0000P0.1500O0.6000,Li3.0Mn1.8333Cr0.1667Ti0.0P3O12,12.704627,
Li0.1500Mn0.1000Cr0.0000Ti0.0000P0.1500O0.6000,Li3.0Mn2.0Cr0.0Ti0.0P3O12,12.704627,
Li0.0556Mn0.0000Fe0.0000Ti0.1111P0.1667O0.6667,Li1.0Mn0.0Fe0.0Ti2.0P3O12,7.7087817,
Li0.0642Mn0.0000Fe0.0092Ti0.1009P0.1651O0.6605,Li1.1667Mn0.0Fe0.1667Ti1.8333P3O12,7.7087817,
Li0.0642Mn0.0092Fe0.0000Ti0.1009P0.1651O0.6605,Li1.1667Mn0.1667Fe0.0Ti1.8333P3O12,7.7087817,
Li0.0727Mn0.0000Fe0.0182Ti0.0909P0.1636O0.6545,Li1.3333Mn0.0Fe0.3333Ti1.6667P3O12,7.7087817,
Li0.0727Mn0.0182Fe0.0000Ti0.0909P0.1636O0.6545,Li1.3333Mn0.3333Fe0.0Ti1.6667P3O12,7.7087817,
Li0.0811Mn0.0000Fe0.0270Ti0.0811P0.1622O0.6486,Li1.5Mn0.0Fe0.5Ti1.5P3O12,6.671572,
Li0.0811Mn0.0090Fe0.0180Ti0.0811P0.1622O0.6486,Li1.5Mn0.1667Fe0.3333Ti1.5P3O12,7.750805,0.1973158455984479
Li0.0811Mn0.0180Fe0.0090Ti0.0811P0.1622O0.6486,Li1.5Mn0.3333Fe0.1667Ti1.5P3O12,7.750805,0.3493721085769299
Li0.0811Mn0.0270Fe0.0000Ti0.0811P0.1622O0.6486,Li1.5Mn0.5Fe0.0Ti1.5P3O12,7.750805,
Li0.0893Mn0.0000Fe0.0357Ti0.0714P0.1607O0.6429,Li1.6667Mn0.0Fe0.6667Ti1.3333P3O12,7.0501,
Li0.0893Mn0.0089Fe0.0268Ti0.0714P0.1607O0.6429,Li1.6667Mn0.1667Fe0.5Ti1.3333P3O12,7.0501,0.16871799549671532
Li0.0893Mn0.0268Fe0.0089Ti0.0714P0.1607O0.6429,Li1.6667Mn0.5Fe0.1667Ti1.3333P3O12,8.129335,0.4058738274687248
Li0.0893Mn0.0357Fe0.0000Ti0.0714P0.1607O0.6429,Li1.6667Mn0.6667Fe0.0Ti1.3333P3O12,8.129335,
Li0.0973Mn0.0000Fe0.0442Ti0.0619P0.1593O0.6372,Li1.8333Mn0.0Fe0.8333Ti1.1667P3O12,6.972733,
Li0.0973Mn0.0177Fe0.0265Ti0.0619P0.1593O0.6372,Li1.8333Mn0.3333Fe0.5Ti1.1667P3O12,7.0501,0.2591265971958714
Li0.0973Mn0.0265Fe0.0177Ti0.0619P0.1593O0.6372,Li1.8333Mn0.5Fe0.3333Ti1.1667P3O12,8.129335,0.3285718938558932
Li0.0973Mn0.0442Fe0.0000Ti0.0619P0.1593O0.6372,Li1.8333Mn0.8333Fe0.0Ti1.1667P3O12,7.1790795,
Li0.1053Mn0.0000Fe0.0526Ti0.0526P0.1579O0.6316,Li2.0Mn0.0Fe1.0Ti1.0P3O12,7.040515,
Li0.1053Mn0.0088Fe0.0439Ti0.0526P0.1579O0.6316,Li2.0Mn0.1667Fe0.8333Ti1.0P3O12,6.972733,0.14218708965947222
Li0.1053Mn0.0175Fe0.0351Ti0.0526P0.1579O0.6316,Li2.0Mn0.3333Fe0.6667Ti1.0P3O12,7.0501,0.23556530163851935
Li0.1053Mn0.0263Fe0.0263Ti0.0526P0.1579O0.6316,Li2.0Mn0.5Fe0.5Ti1.0P3O12,7.0501,0.3061363825018796
Li0.1053Mn0.0351Fe0.0175Ti0.0526P0.1579O0.6316,Li2.0Mn0.6667Fe0.3333Ti1.0P3O12,8.129335,0.36540273779674354
Li0.1053Mn0.0439Fe0.0088Ti0.0526P0.1579O0.6316,Li2.0Mn0.8333Fe0.1667Ti1.0P3O12,7.1790795,0.4881237825155591
Li0.1053Mn0.0526Fe0.0000Ti0.0526P0.1579O0.6316,Li2.0Mn1.0Fe0.0Ti1.0P3O12,7.5443654,
Li0.1130Mn0.0000Fe0.0609Ti0.0435P0.1565O0.6261,Li2.1667Mn0.0Fe1.1667Ti0.8333P3O12,7.040515,
Li0.1130Mn0.0087Fe0.0522Ti0.0435P0.1565O0.6261,Li2.1667Mn0.1667Fe1.0Ti0.8333P3O12,6.972733,0.13273737688574722
Li0.1130Mn0.0261Fe0.0348Ti0.0435P0.1565O0.6261,Li2.1667Mn0.5Fe0.6667Ti0.8333P3O12,7.0501,0.038623200534031274
Li0.1130Mn0.0348Fe0.0261Ti0.0435P0.1565O0.6261,Li2.1667Mn0.6667Fe0.5Ti0.8333P3O12,7.0501,0.045309468213750766
Li0.1130Mn0.0522Fe0.0087Ti0.0435P0.1565O0.6261,Li2.1667Mn1.0Fe0.1667Ti0.8333P3O12,7.5443654,0.31262192718215637
Li0.1130Mn0.0609Fe0.0000Ti0.0435P0.1565O0.6261,Li2.1667Mn1.1667Fe0.0Ti0.8333P3O12,7.5443654,
Li0.1207Mn0.0000Fe0.0690Ti0.0345P0.1552O0.6207,Li2.3333Mn0.0Fe1.3333Ti0.6667P3O12,7.040515,
Li0.1207Mn0.0172Fe0.0517Ti0.0345P0.1552O0.6207,Li2.3333Mn0.3333Fe1.0Ti0.6667P3O12,6.972733,0.22473612484772498
Li0.1207Mn0.0259Fe0.0431Ti0.0345P0.1552O0.6207,Li2.3333Mn0.5Fe0.8333Ti0.6667P3O12,6.972733,0.03374212989755503
Li0.1207Mn0.0431Fe0.0259Ti0.0345P0.1552O0.6207,Li2.3333Mn0.8333Fe0.5Ti0.6667P3O12,6.0998464,0.045184375998428665
Li0.1207Mn0.0517Fe0.0172Ti0.0345P0.1552O0.6207,Li2.3333Mn1.0Fe0.3333Ti0.6667P3O12,7.5443654,0.4853312499905035
Li0.1207Mn0.0690Fe0.0000Ti0.0345P0.1552O0.6207,Li2.3333Mn1.3333Fe0.0Ti0.6667P3O12,7.5443654,
Li0.1282Mn0.0000Fe0.0769Ti0.0256P0.1538O0.6154,Li2.5Mn0.0Fe1.5Ti0.5P3O12,7.040515,
Li0.1282Mn0.0085Fe0.0684Ti0.0256P0.1538O0.6154,Li2.5Mn0.1667Fe1.3333Ti0.5P3O12,7.040515,0.16529040812382498
Li0.1282Mn0.0171Fe0.0598Ti0.0256P0.1538O0.6154,Li2.5Mn0.3333Fe1.1667Ti0.5P3O12,7.040515,0.24772890784788287
Li0.1282Mn0.0256Fe0.0513Ti0.0256P0.1538O0.6154,Li2.5Mn0.5Fe1.0Ti0.5P3O12,6.972733,0.30111265625480654
Li0.1282Mn0.0342Fe0.0427Ti0.0256P0.1538O0.6154,Li2.5Mn0.6667Fe0.8333Ti0.5P3O12,6.972733,0.03296257318174641
Li0.1282Mn0.0427Fe0.0342Ti0.0256P0.1538O0.6154,Li2.5Mn0.8333Fe0.6667Ti0.5P3O12,6.0998464,0.03740160867695985
Li0.1282Mn0.0513Fe0.0256Ti0.0256P0.1538O0.6154,Li2.5Mn1.0Fe0.5Ti0.5P3O12,6.465132,0.6035689780265687
Li0.1282Mn0.0598Fe0.0171Ti0.0256P0.1538O0.6154,Li2.5Mn1.1667Fe0.3333Ti0.5P3O12,7.5443654,0.5232723982124657
Li0.1282Mn0.0684Fe0.0085Ti0.0256P0.1538O0.6154,Li2.5Mn1.3333Fe0.1667Ti0.5P3O12,7.5443654,0.36296381331474237
Li0.1282Mn0.0769Fe0.0000Ti0.0256P0.1538O0.6154,Li2.5Mn1.5Fe0.0Ti0.5P3O12,7.5443654,
Li0.1356Mn0.0000Fe0.0847Ti0.0169P0.1525O0.6102,Li2.6667Mn0.0Fe1.6667Ti0.3333P3O12,7.040515,
Li0.1356Mn0.0085Fe0.0763Ti0.0169P0.1525O0.6102,Li2.6667Mn0.1667Fe1.5Ti0.3333P3O12,7.040515,0.1967391157012997
Li0.1356Mn0.0254Fe0.0593Ti0.0169P0.1525O0.6102,Li2.6667Mn0.5Fe1.1667Ti0.3333P3O12,7.040515,0.3414349929639312
Li0.1356Mn0.0339Fe0.0508Ti0.0169P0.1525O0.6102,Li2.6667Mn0.6667Fe1.0Ti0.3333P3O12,6.972733,0.3824365106170636
Li0.1356Mn0.0508Fe0.0339Ti0.0169P0.1525O0.6102,Li2.6667Mn1.0Fe0.6667Ti0.3333P3O12,6.465132,0.7328913349248428
Li0.1356Mn0.0593Fe0.0254Ti0.0169P0.1525O0.6102,Li2.6667Mn1.1667Fe0.5Ti0.3333P3O12,6.465132,0.6640638439438967
Li0.1356Mn0.0763Fe0.0085Ti0.0169P0.1525O0.6102,Li2.6667Mn1.5Fe0.1667Ti0.3333P3O12,7.5443654,0.4106661559428859
Li0.1356Mn0.0847Fe0.0000Ti0.0169P0.1525O0.6102,Li2.6667Mn1.6667Fe0.0Ti0.3333P3O12,7.480082,
Li0.1429Mn0.0000Fe0.0924Ti0.0084P0.1513O0.6050,Li2.8333Mn0.0Fe1.8333Ti0.1667P3O12,10.772052,
Li0.1429Mn0.0168Fe0.0756Ti0.0084P0.1513O0.6050,Li2.8333Mn0.3333Fe1.5Ti0.1667P3O12,10.772052,0.36364392442498533
Li0.1429Mn0.0252Fe0.0672Ti0.0084P0.1513O0.6050,Li2.8333Mn0.5Fe1.3333Ti0.1667P3O12,10.772052,0.4222054217508886
Li0.1429Mn0.0420Fe0.0504Ti0.0084P0.1513O0.6050,Li2.8333Mn0.8333Fe1.0Ti0.1667P3O12,7.971861,0.4981840753174731
Li0.1429Mn0.0504Fe0.0420Ti0.0084P0.1513O0.6050,Li2.8333Mn1.0Fe0.8333Ti0.1667P3O12,8.337149,0.9281572577543157
Li0.1429Mn0.0672Fe0.0252Ti0.0084P0.1513O0.6050,Li2.8333Mn1.3333Fe0.5Ti0.1667P3O12,8.34362,0.7914047234547026
Li0.1429Mn0.0756Fe0.0168Ti0.0084P0.1513O0.6050,Li2.8333Mn1.5Fe0.3333Ti0.1667P3O12,9.4228525,0.7015330194038114
Li0.1429Mn0.0924Fe0.0000Ti0.0084P0.1513O0.6050,Li2.8333Mn1.8333Fe0.0Ti0.1667P3O12,9.358569,
Li0.1500Mn0.0000Fe0.1000Ti0.0000P0.1500O0.6000,Li3.0Mn0.0Fe2.0Ti0.0P3O12,13.206304,
Li0.1500Mn0.0083Fe0.0917Ti0.0000P0.1500O0.6000,Li3.0Mn0.1667Fe1.8333Ti0.0P3O12,13.332053,
Li0.1500Mn0.0167Fe0.0833Ti0.0000P0.1500O0.6000,Li3.0Mn0.3333Fe1.6667Ti0.0P3O12,13.332053,
Li0.1500Mn0.0250Fe0.0750Ti0.0000P0.1500O0.6000,Li3.0Mn0.5Fe1.5Ti0.0P3O12,13.332053,
Li0.1500Mn0.0333Fe0.0667Ti0.0000P0.1500O0.6000,Li3.0Mn0.6667Fe1.3333Ti0.0P3O12,13.332053,
Li0.1500Mn0.0417Fe0.0583Ti0.0000P0.1500O0.6000,Li3.0Mn0.8333Fe1.1667Ti0.0P3O12,10.531866,
Li0.1500Mn0.0500Fe0.0500Ti0.0000P0.1500O0.6000,Li3.0Mn1.0Fe1.0Ti0.0P3O12,10.89715,
Li0.1500Mn0.0583Fe0.0417Ti0.0000P0.1500O0.6000,Li3.0Mn1.1667Fe0.8333Ti0.0P3O12,10.89715,
Li0.1500Mn0.0667Fe0.0333Ti0.0000P0.1500O0.6000,Li3.0Mn1.3333Fe0.6667Ti0.0P3O12,10.903622,
Li0.1500Mn0.0750Fe0.0250Ti0.0000P0.1500O0.6000,Li3.0Mn1.5Fe0.5Ti0.0P3O12,10.903622,
Li0.1500Mn0.0833Fe0.0167Ti0.0000P0.1500O0.6000,Li3.0Mn1.6667Fe0.3333Ti0.0P3O12,12.704627,
Li0.1500Mn0.0917Fe0.0083Ti0.0000P0.1500O0.6000,Li3.0Mn1.8333Fe0.1667Ti0.0P3O12,12.704627,
Li0.1500Mn0.1000Fe0.0000Ti0.0000P0.1500O0.6000,Li3.0Mn2.0Fe0.0Ti0.0P3O12,12.704627,
Li0.0556Mn0.0000Ga0.0000Ti0.1111P0.1667O0.6667,Li1.0Mn0.0Ga0.0Ti2.0P3O12,7.7087817,
Li0.0642Mn0.0000Ga0.0092Ti0.1009P0.1651O0.6605,Li1.1667Mn0.0Ga0.1667Ti1.8333P3O12,7.7087817,
Li0.0642Mn0.0092Ga0.0000Ti0.1009P0.1651O0.6605,Li1.1667Mn0.1667Ga0.0Ti1.8333P3O12,7.7087817,
Li0.0727Mn0.0000Ga0.0182Ti0.0909P0.1636O0.6545,Li1.3333Mn0.0Ga0.3333Ti1.6667P3O12,7.678768,
Li0.0727Mn0.0182Ga0.0000Ti0.0909P0.1636O0.6545,Li1.3333Mn0.3333Ga0.0Ti1.6667P3O12,7.7087817,
Li0.0811Mn0.0000Ga0.0270Ti0.0811P0.1622O0.6486,Li1.5Mn0.0Ga0.5Ti1.5P3O12,7.7207913,
Li0.0811Mn0.0090Ga0.0180Ti0.0811P0.1622O0.6486,Li1.5Mn0.1667Ga0.3333Ti1.5P3O12,7.7207913,1.317958987471299
Li0.0811Mn0.0180Ga0.0090Ti0.0811P0.1622O0.6486,Li1.5Mn0.3333Ga0.1667Ti1.5P3O12,7.750805,2.32953136392788
Li0.0811Mn0.0270Ga0.0000Ti0.0811P0.1622O0.6486,Li1.5Mn0.5Ga0.0Ti1.5P3O12,7.750805,
Li0.0893Mn0.0000Ga0.0357Ti0.0714P0.1607O0.6429,Li1.6667Mn0.0Ga0.6667Ti1.3333P3O12,8.099321,
Li0.0893Mn0.0089Ga0.0268Ti0.0714P0.1607O0.6429,Li1.6667Mn0.1667Ga0.5Ti1.3333P3O12,8.099321,1.2164872599402814
Li0.0893Mn0.0268Ga0.0089Ti0.0714P0.1607O0.6429,Li1.6667Mn0.5Ga0.1667Ti1.3333P3O12,8.129335,2.7807588111037282
Li0.0893Mn0.0357Ga0.0000Ti0.0714P0.1607O0.6429,Li1.6667Mn0.6667Ga0.0Ti1.3333P3O12,8.129335,
Li0.0973Mn0.0000Ga0.0442Ti0.0619P0.1593O0.6372,Li1.8333Mn0.0Ga0.8333Ti1.1667P3O12,8.099321,
Li0.0973Mn0.0177Ga0.0265Ti0.0619P0.1593O0.6372,Li1.8333Mn0.3333Ga0.5Ti1.1667P3O12,8.099321,1.8507309296127215
Li0.0973Mn0.0265Ga0.0177Ti0.0619P0.1593O0.6372,Li1.8333Mn0.5Ga0.3333Ti1.1667P3O12,8.099321,2.428798432890724
Li0.0973Mn0.0442Ga0.0000Ti0.0619P0.1593O0.6372,Li1.8333Mn0.8333Ga0.0Ti1.1667P3O12,7.1790795,