formula,original_formula,thermal_expansion,li ion conductivity
Li0.1282Fe0.0256Mn0.0513Ti0.0256P0.1538O0.6154,Li2.5Fe0.5Mn1.0Ti0.5P3O12,6.465132,0.6035689780265687
Li0.1282Fe0.0342Mn0.0427Ti0.0256P0.1538O0.6154,Li2.5Fe0.6667Mn0.8333Ti0.5P3O12,6.0998464,0.06134825569301798
Li0.1282Fe0.0427Mn0.0342Ti0.0256P0.1538O0.6154,Li2.5Fe0.8333Mn0.6667Ti0.5P3O12,6.972733,0.06851420471838286
Li0.1282Fe0.0513Mn0.0256Ti0.0256P0.1538O0.6154,Li2.5Fe1.0Mn0.5Ti0.5P3O12,6.972733,0.30111265625480654
Li0.1282Fe0.0598Mn0.0171Ti0.0256P0.1538O0.6154,Li2.5Fe1.1667Mn0.3333Ti0.5P3O12,7.040515,0.24772890784788287
Li0.1282Fe0.0684Mn0.0085Ti0.0256P0.1538O0.6154,Li2.5Fe1.3333Mn0.1667Ti0.5P3O12,7.040515,0.16529040812382498
Li0.1282Fe0.0769Mn0.0000Ti0.0256P0.1538O0.6154,Li2.5Fe1.5Mn0.0Ti0.5P3O12,7.040515,
Li0.1356Fe0.0000Mn0.0847Ti0.0169P0.1525O0.6102,Li2.6667Fe0.0Mn1.6667Ti0.3333P3O12,7.480082,
Li0.1356Fe0.0085Mn0.0763Ti0.0169P0.1525O0.6102,Li2.6667Fe0.1667Mn1.5Ti0.3333P3O12,7.5443654,0.4106661559428859
Li0.1356Fe0.0254Mn0.0593Ti0.0169P0.1525O0.6102,Li2.6667Fe0.5Mn1.1667Ti0.3333P3O12,6.465132,0.6640638439438967
Li0.1356Fe0.0339Mn0.0508Ti0.0169P0.1525O0.6102,Li2.6667Fe0.6667Mn1.0Ti0.3333P3O12,6.465132,0.7328913349248428
Li0.1356Fe0.0508Mn0.0339Ti0.0169P0.1525O0.6102,Li2.6667Fe1.0Mn0.6667Ti0.3333P3O12,6.972733,0.3824365106170636
Li0.1356Fe0.0593Mn0.0254Ti0.0169P0.1525O0.6102,Li2.6667Fe1.1667Mn0.5Ti0.3333P3O12,7.040515,0.3414349929639312
Li0.1356Fe0.0763Mn0.0085Ti0.0169P0.1525O0.6102,Li2.6667Fe1.5Mn0.1667Ti0.3333P3O12,7.040515,0.1967391157012997
Li0.1356Fe0.0847Mn0.0000Ti0.0169P0.1525O0.6102,Li2.6667Fe1.6667Mn0.0Ti0.3333P3O12,7.040515,
Li0.1429Fe0.0000Mn0.0924Ti0.0084P0.1513O0.6050,Li2.8333Fe0.0Mn1.8333Ti0.1667P3O12,9.358569,
Li0.1429Fe0.0168Mn0.0756Ti0.0084P0.1513O0.6050,Li2.8333Fe0.3333Mn1.5Ti0.1667P3O12,9.4228525,0.7015330194038114
Li0.1429Fe0.0252Mn0.0672Ti0.0084P0.1513O0.6050,Li2.8333Fe0.5Mn1.3333Ti0.1667P3O12,8.34362,0.7914047234547026
Li0.1429Fe0.0420Mn0.0504Ti0.0084P0.1513O0.6050,Li2.8333Fe0.8333Mn1.0Ti0.1667P3O12,8.337149,0.9281572577543157
Li0.1429Fe0.0504Mn0.0420Ti0.0084P0.1513O0.6050,Li2.8333Fe1.0Mn0.8333Ti0.1667P3O12,7.971861,0.4981840753174731
Li0.1429Fe0.0672Mn0.0252Ti0.0084P0.1513O0.6050,Li2.8333Fe1.3333Mn0.5Ti0.1667P3O12,10.772052,0.4222054217508886
Li0.1429Fe0.0756Mn0.0168Ti0.0084P0.1513O0.6050,Li2.8333Fe1.5Mn0.3333Ti0.1667P3O12,10.772052,0.36364392442498533
Li0.1429Fe0.0924Mn0.0000Ti0.0084P0.1513O0.6050,Li2.8333Fe1.8333Mn0.0Ti0.1667P3O12,10.772052,
Li0.1500Fe0.0000Mn0.1000Ti0.0000P0.1500O0.6000,Li3.0Fe0.0Mn2.0Ti0.0P3O12,12.704627,
Li0.1500Fe0.0083Mn0.0917Ti0.0000P0.1500O0.6000,Li3.0Fe0.1667Mn1.8333Ti0.0P3O12,12.704627,
Li0.1500Fe0.0167Mn0.0833Ti0.0000P0.1500O0.6000,Li3.0Fe0.3333Mn1.6667Ti0.0P3O12,12.704627,
Li0.1500Fe0.0250Mn0.0750Ti0.0000P0.1500O0.6000,Li3.0Fe0.5Mn1.5Ti0.0P3O12,10.903622,
Li0.1500Fe0.0333Mn0.0667Ti0.0000P0.1500O0.6000,Li3.0Fe0.6667Mn1.3333Ti0.0P3O12,10.903622,
Li0.1500Fe0.0417Mn0.0583Ti0.0000P0.1500O0.6000,Li3.0Fe0.8333Mn1.1667Ti0.0P3O12,10.89715,
Li0.1500Fe0.0500Mn0.0500Ti0.0000P0.1500O0.6000,Li3.0Fe1.0Mn1.0Ti0.0P3O12,10.89715,
Li0.1500Fe0.0583Mn0.0417Ti0.0000P0.1500O0.6000,Li3.0Fe1.1667Mn0.8333Ti0.0P3O12,10.531866,
Li0.1500Fe0.0667Mn0.0333Ti0.0000P0.1500O0.6000,Li3.0Fe1.3333Mn0.6667Ti0.0P3O12,13.332053,
Li0.1500Fe0.0750Mn0.0250Ti0.0000P0.1500O0.6000,Li3.0Fe1.5Mn0.5Ti0.0P3O12,13.332053,
Li0.1500Fe0.0833Mn0.0167Ti0.0000P0.1500O0.6000,Li3.0Fe1.6667Mn0.3333Ti0.0P3O12,13.332053,
Li0.1500Fe0.0917Mn0.0083Ti0.0000P0.1500O0.6000,Li3.0Fe1.8333Mn0.1667Ti0.0P3O12,13.332053,
Li0.1500Fe0.1000Mn0.0000Ti0.0000P0.1500O0.6000,Li3.0Fe2.0Mn0.0Ti0.0P3O12,13.206304,
Li0.0556Fe0.0000Ni0.0000Ti0.1111P0.1667O0.6667,Li1.0Fe0.0Ni0.0Ti2.0P3O12,7.7087817,
Li0.0642Fe0.0000Ni0.0092Ti0.1009P0.1651O0.6605,Li1.1667Fe0.0Ni0.1667Ti1.8333P3O12,7.7087817,
Li0.0642Fe0.0092Ni0.0000Ti0.1009P0.1651O0.6605,Li1.1667Fe0.1667Ni0.0Ti1.8333P3O12,7.7087817,
Li0.0727Fe0.0000Ni0.0182Ti0.0909P0.1636O0.6545,Li1.3333Fe0.0Ni0.3333Ti1.6667P3O12,7.7087817,
Li0.0727Fe0.0182Ni0.0000Ti0.0909P0.1636O0.6545,Li1.3333Fe0.3333Ni0.0Ti1.6667P3O12,7.7087817,
Li0.0811Fe0.0000Ni0.0270Ti0.0811P0.1622O0.6486,Li1.5Fe0.0Ni0.5Ti1.5P3O12,12.950637,
Li0.0811Fe0.0090Ni0.0180Ti0.0811P0.1622O0.6486,Li1.5Fe0.1667Ni0.3333Ti1.5P3O12,7.750805,0.20963639559125472
Li0.0811Fe0.0180Ni0.0090Ti0.0811P0.1622O0.6486,Li1.5Fe0.3333Ni0.1667Ti1.5P3O12,7.750805,0.3420937320684796
Li0.0811Fe0.0270Ni0.0000Ti0.0811P0.1622O0.6486,Li1.5Fe0.5Ni0.0Ti1.5P3O12,6.671572,
Li0.0893Fe0.0000Ni0.0357Ti0.0714P0.1607O0.6429,Li1.6667Fe0.0Ni0.6667Ti1.3333P3O12,13.329165,
Li0.0893Fe0.0089Ni0.0268Ti0.0714P0.1607O0.6429,Li1.6667Fe0.1667Ni0.5Ti1.3333P3O12,13.329165,0.1876245570688527
Li0.0893Fe0.0268Ni0.0089Ti0.0714P0.1607O0.6429,Li1.6667Fe0.5Ni0.1667Ti1.3333P3O12,7.0501,0.3839216310659518
Li0.0893Fe0.0357Ni0.0000Ti0.0714P0.1607O0.6429,Li1.6667Fe0.6667Ni0.0Ti1.3333P3O12,7.0501,
Li0.0973Fe0.0000Ni0.0442Ti0.0619P0.1593O0.6372,Li1.8333Fe0.0Ni0.8333Ti1.1667P3O12,13.373692,
Li0.0973Fe0.0177Ni0.0265Ti0.0619P0.1593O0.6372,Li1.8333Fe0.3333Ni0.5Ti1.1667P3O12,13.329165,0.26534226315547593
Li0.0973Fe0.0265Ni0.0177Ti0.0619P0.1593O0.6372,Li1.8333Fe0.5Ni0.3333Ti1.1667P3O12,7.0501,0.31934057504417346
Li0.0973Fe0.0442Ni0.0000Ti0.0619P0.1593O0.6372,Li1.8333Fe0.8333Ni0.0Ti1.1667P3O12,6.972733,
Li0.1053Fe0.0000Ni0.0526Ti0.0526P0.1579O0.6316,Li2.0Fe0.0Ni1.0Ti1.0P3O12,13.373692,
Li0.1053Fe0.0088Ni0.0439Ti0.0526P0.1579O0.6316,Li2.0Fe0.1667Ni0.8333Ti1.0P3O12,13.373692,0.16613007303605354
Li0.1053Fe0.0175Ni0.0351Ti0.0526P0.1579O0.6316,Li2.0Fe0.3333Ni0.6667Ti1.0P3O12,13.329165,0.25535202190736583
Li0.1053Fe0.0263Ni0.0263Ti0.0526P0.1579O0.6316,Li2.0Fe0.5Ni0.5Ti1.0P3O12,12.216577,0.29421198151574485
Li0.1053Fe0.0351Ni0.0175Ti0.0526P0.1579O0.6316,Li2.0Fe0.6667Ni0.3333Ti1.0P3O12,7.0501,0.3465647847881424
Li0.1053Fe0.0439Ni0.0088Ti0.0526P0.1579O0.6316,Li2.0Fe0.8333Ni0.1667Ti1.0P3O12,6.972733,0.45143416205127557
Li0.1053Fe0.0526Ni0.0000Ti0.0526P0.1579O0.6316,Li2.0Fe1.0Ni0.0Ti1.0P3O12,7.040515,
Li0.1130Fe0.0000Ni0.0609Ti0.0435P0.1565O0.6261,Li2.1667Fe0.0Ni1.1667Ti0.8333P3O12,13.441338,
Li0.1130Fe0.0087Ni0.0522Ti0.0435P0.1565O0.6261,Li2.1667Fe0.1667Ni1.0Ti0.8333P3O12,13.373692,0.26776374899149014
Li0.1130Fe0.0261Ni0.0348Ti0.0435P0.1565O0.6261,Li2.1667Fe0.5Ni0.6667Ti0.8333P3O12,12.216577,0.038060615479627954
Li0.1130Fe0.0348Ni0.0261Ti0.0435P0.1565O0.6261,Li2.1667Fe0.6667Ni0.5Ti0.8333P3O12,12.216577,0.042505641892966343
Li0.1130Fe0.0522Ni0.0087Ti0.0435P0.1565O0.6261,Li2.1667Fe1.0Ni0.1667Ti0.8333P3O12,6.972733,0.29815510107410387
Li0.1130Fe0.0609Ni0.0000Ti0.0435P0.1565O0.6261,Li2.1667Fe1.1667Ni0.0Ti0.8333P3O12,7.040515,
Li0.1207Fe0.0000Ni0.0690Ti0.0345P0.1552O0.6207,Li2.3333Fe0.0Ni1.3333Ti0.6667P3O12,13.441338,
Li0.1207Fe0.0172Ni0.0517Ti0.0345P0.1552O0.6207,Li2.3333Fe0.3333Ni1.0Ti0.6667P3O12,13.373692,0.4173604509870283
Li0.1207Fe0.0259Ni0.0431Ti0.0345P0.1552O0.6207,Li2.3333Fe0.5Ni0.8333Ti0.6667P3O12,12.261103,0.03462863613536832
Li0.1207Fe0.0431Ni0.0259Ti0.0345P0.1552O0.6207,Li2.3333Fe0.8333Ni0.5Ti0.6667P3O12,12.139211,0.043275671952298936
Li0.1207Fe0.0517Ni0.0172Ti0.0345P0.1552O0.6207,Li2.3333Fe1.0Ni0.3333Ti0.6667P3O12,6.972733,0.5541959031882997
Li0.1207Fe0.0690Ni0.0000Ti0.0345P0.1552O0.6207,Li2.3333Fe1.3333Ni0.0Ti0.6667P3O12,7.040515,
Li0.1282Fe0.0000Ni0.0769Ti0.0256P0.1538O0.6154,Li2.5Fe0.0Ni1.5Ti0.5P3O12,13.441338,
Li0.1282Fe0.0085Ni0.0684Ti0.0256P0.1538O0.6154,Li2.5Fe0.1667Ni1.3333Ti0.5P3O12,13.441338,0.31000249843319033
Li0.1282Fe0.0171Ni0.0598Ti0.0256P0.1538O0.6154,Li2.5Fe0.3333Ni1.1667Ti0.5P3O12,13.373692,0.4542116529551857
Li0.1282Fe0.0256Ni0.0513Ti0.0256P0.1538O0.6154,Li2.5Fe0.5Ni1.0Ti0.5P3O12,12.261103,0.5232278737951173
Li0.1282Fe0.0342Ni0.0427Ti0.0256P0.1538O0.6154,Li2.5Fe0.6667Ni0.8333Ti0.5P3O12,12.261103,0.03480561740763474
Li0.1282Fe0.0427Ni0.0342Ti0.0256P0.1538O0.6154,Li2.5Fe0.8333Ni0.6667Ti0.5P3O12,12.139211,0.038758885182988
Li0.1282Fe0.0513Ni0.0256Ti0.0256P0.1538O0.6154,Li2.5Fe1.0Ni0.5Ti0.5P3O12,12.139211,0.7654143303939541
Li0.1282Fe0.0598Ni0.0171Ti0.0256P0.1538O0.6154,Li2.5Fe1.1667Ni0.3333Ti0.5P3O12,7.040515,0.5824262065020654
Li0.1282Fe0.0684Ni0.0085Ti0.0256P0.1538O0.6154,Li2.5Fe1.3333Ni0.1667Ti0.5P3O12,7.040515,0.3454256909683459
Li0.1282Fe0.0769Ni0.0000Ti0.0256P0.1538O0.6154,Li2.5Fe1.5Ni0.0Ti0.5P3O12,7.040515,
Li0.1356Fe0.0000Ni0.0847Ti0.0169P0.1525O0.6102,Li2.6667Fe0.0Ni1.6667Ti0.3333P3O12,13.38264,
Li0.1356Fe0.0085Ni0.0763Ti0.0169P0.1525O0.6102,Li2.6667Fe0.1667Ni1.5Ti0.3333P3O12,13.441338,0.3514656934820215
Li0.1356Fe0.0254Ni0.0593Ti0.0169P0.1525O0.6102,Li2.6667Fe0.5Ni1.1667Ti0.3333P3O12,12.261103,0.5799620829899911
Li0.1356Fe0.0339Ni0.0508Ti0.0169P0.1525O0.6102,Li2.6667Fe0.6667Ni1.0Ti0.3333P3O12,12.261103,0.6374756860456678
Li0.1356Fe0.0508Ni0.0339Ti0.0169P0.1525O0.6102,Li2.6667Fe1.0Ni0.6667Ti0.3333P3O12,12.139211,0.9488069516736505
Li0.1356Fe0.0593Ni0.0254Ti0.0169P0.1525O0.6102,Li2.6667Fe1.1667Ni0.5Ti0.3333P3O12,12.206993,0.8083051930825051
Li0.1356Fe0.0763Ni0.0085Ti0.0169P0.1525O0.6102,Li2.6667Fe1.5Ni0.1667Ti0.3333P3O12,7.040515,0.38845348136595736
Li0.1356Fe0.0847Ni0.0000Ti0.0169P0.1525O0.6102,Li2.6667Fe1.6667Ni0.0Ti0.3333P3O12,7.040515,
Li0.1429Fe0.0000Ni0.0924Ti0.0084P0.1513O0.6050,Li2.8333Fe0.0Ni1.8333Ti0.1667P3O12,15.33442,
Li0.1429Fe0.0168Ni0.0756Ti0.0084P0.1513O0.6050,Li2.8333Fe0.3333Ni1.5Ti0.1667P3O12,15.393118,0.6008171391072504
Li0.1429Fe0.0252Ni0.0672Ti0.0084P0.1513O0.6050,Li2.8333Fe0.5Ni1.3333Ti0.1667P3O12,14.280529,0.6954518007649761
Li0.1429Fe0.0420Ni0.0504Ti0.0084P0.1513O0.6050,Li2.8333Fe0.8333Ni1.0Ti0.1667P3O12,14.135517,0.812933315307024
Li0.1429Fe0.0504Ni0.0420Ti0.0084P0.1513O0.6050,Li2.8333Fe1.0Ni0.8333Ti0.1667P3O12,14.135517,1.1572881734312632
Li0.1429Fe0.0672Ni0.0252Ti0.0084P0.1513O0.6050,Li2.8333Fe1.3333Ni0.5Ti0.1667P3O12,14.158773,0.9039771356980912
Li0.1429Fe0.0756Ni0.0168Ti0.0084P0.1513O0.6050,Li2.8333Fe1.5Ni0.3333Ti0.1667P3O12,10.772052,0.720836819847287
Li0.1429Fe0.0924Ni0.0000Ti0.0084P0.1513O0.6050,Li2.8333Fe1.8333Ni0.0Ti0.1667P3O12,10.772052,
Li0.1500Fe0.0000Ni0.1000Ti0.0000P0.1500O0.6000,Li3.0Fe0.0Ni2.0Ti0.0P3O12,18.680473,
Li0.1500Fe0.0083Ni0.0917Ti0.0000P0.1500O0.6000,Li3.0Fe0.1667Ni1.8333Ti0.0P3O12,18.680473,
Li0.1500Fe0.0167Ni0.0833Ti0.0000P0.1500O0.6000,Li3.0Fe0.3333Ni1.6667Ti0.0P3O12,18.680473,
Li0.1500Fe0.0250Ni0.0750Ti0.0000P0.1500O0.6000,Li3.0Fe0.5Ni1.5Ti0.0P3O12,16.840532,
Li0.1500Fe0.0333Ni0.0667Ti0.0000P0.1500O0.6000,Li3.0Fe0.6667Ni1.3333Ti0.0P3O12,16.840532,
Li0.1500Fe0.0417Ni0.0583Ti0.0000P0.1500O0.6000,Li3.0Fe0.8333Ni1.1667Ti0.0P3O12,16.695518,
Li0.1500Fe0.0500Ni0.0500Ti0.0000P0.1500O0.6000,Li3.0Fe1.0Ni1.0Ti0.0P3O12,16.695518,
Li0.1500Fe0.0583Ni0.0417Ti0.0000P0.1500O0.6000,Li3.0Fe1.1667Ni0.8333Ti0.0P3O12,16.7633,
Li0.1500Fe0.0667Ni0.0333Ti0.0000P0.1500O0.6000,Li3.0Fe1.3333Ni0.6667Ti0.0P3O12,16.718775,
Li0.1500Fe0.0750Ni0.0250Ti0.0000P0.1500O0.6000,Li3.0Fe1.5Ni0.5Ti0.0P3O12,16.718775,
Li0.1500Fe0.0833Ni0.0167Ti0.0000P0.1500O0.6000,Li3.0Fe1.6667Ni0.3333Ti0.0P3O12,13.332053,
Li0.1500Fe0.0917Ni0.0083Ti0.0000P0.1500O0.6000,Li3.0Fe1.8333Ni0.1667Ti0.0P3O12,13.332053,
Li0.1500Fe0.1000Ni0.0000Ti0.0000P0.1500O0.6000,Li3.0Fe2.0Ni0.0Ti0.0P3O12,13.206304,
Li0.0556Fe0.0000Sb0.0000Ti0.1111P0.1667O0.6667,Li1.0Fe0.0Sb0.0Ti2.0P3O12,7.7087817,
Li0.0642Fe0.0000Sb0.0092Ti0.1009P0.1651O0.6605,Li1.1667Fe0.0Sb0.1667Ti1.8333P3O12,7.7087817,
Li0.0642Fe0.0092Sb0.0000Ti0.1009P0.1651O0.6605,Li1.1667Fe0.1667Sb0.0Ti1.8333P3O12,7.7087817,
Li0.0727Fe0.0000Sb0.0182Ti0.0909P0.1636O0.6545,Li1.3333Fe0.0Sb0.3333Ti1.6667P3O12,8.6522875,
Li0.0727Fe0.0182Sb0.0000Ti0.0909P0.1636O0.6545,Li1.3333Fe0.3333Sb0.0Ti1.6667P3O12,7.7087817,
Li0.0811Fe0.0000Sb0.0270Ti0.0811P0.1622O0.6486,Li1.5Fe0.0Sb0.5Ti1.5P3O12,8.677033,
Li0.0811Fe0.0090Sb0.0180Ti0.0811P0.1622O0.6486,Li1.5Fe0.1667Sb0.3333Ti1.5P3O12,8.69431,0.009200852891309034
Li0.0811Fe0.0180Sb0.0090Ti0.0811P0.1622O0.6486,Li1.5Fe0.3333Sb0.1667Ti1.5P3O12,7.750805,0.01879767419271095
Li0.0811Fe0.0270Sb0.0000Ti0.0811P0.1622O0.6486,Li1.5Fe0.5Sb0.0Ti1.5P3O12,6.671572,
Li0.0893Fe0.0000Sb0.0357Ti0.0714P0.1607O0.6429,Li1.6667Fe0.0Sb0.6667Ti1.3333P3O12,9.055562,
Li0.0893Fe0.0089Sb0.0268Ti0.0714P0.1607O0.6429,Li1.6667Fe0.1667Sb0.5Ti1.3333P3O12,9.055562,0.007538633551005962
Li0.0893Fe0.0268Sb0.0089Ti0.0714P0.1607O0.6429,Li1.6667Fe0.5Sb0.1667Ti1.3333P3O12,7.0501,0.02156856725578699
Li0.0893Fe0.0357Sb0.0000Ti0.0714P0.1607O0.6429,Li1.6667Fe0.6667Sb0.0Ti1.3333P3O12,7.0501,
Li0.0973Fe0.0000Sb0.0442Ti0.0619P0.1593O0.6372,Li1.8333Fe0.0Sb0.8333Ti1.1667P3O12,9.055562,
Li0.0973Fe0.0177Sb0.0265Ti0.0619P0.1593O0.6372,Li1.8333Fe0.3333Sb0.5Ti1.1667P3O12,9.055562,0.009972654378699177
Li0.0973Fe0.0265Sb0.0177Ti0.0619P0.1593O0.6372,Li1.8333Fe0.5Sb0.3333Ti1.1667P3O12,7.9936023,0.013937965044396136
Li0.0973Fe0.0442Sb0.0000Ti0.0619P0.1593O0.6372,Li1.8333Fe0.8333Sb0.0Ti1.1667P3O12,6.972733,
Li0.1053Fe0.0000Sb0.0526Ti0.0526P0.1579O0.6316,Li2.0Fe0.0Sb1.0Ti1.0P3O12,9.055562,
Li0.1053Fe0.0088Sb0.0439Ti0.0526P0.1579O0.6316,Li2.0Fe0.1667Sb0.8333Ti1.0P3O12,9.055562,0.006010711674991596
Li0.1053Fe0.0175Sb0.0351Ti0.0526P0.1579O0.6316,Li2.0Fe0.3333Sb0.6667Ti1.0P3O12,9.055562,0.008670736571893328
Li0.1053Fe0.0263Sb0.0263Ti0.0526P0.1579O0.6316,Li2.0Fe0.5Sb0.5Ti1.0P3O12,7.976324,0.011353930121394453
Li0.1053Fe0.0351Sb0.0175Ti0.0526P0.1579O0.6316,Li2.0Fe0.6667Sb0.3333Ti1.0P3O12,7.9936023,0.015593704316819078
Li0.1053Fe0.0439Sb0.0088Ti0.0526P0.1579O0.6316,Li2.0Fe0.8333Sb0.1667Ti1.0P3O12,6.972733,0.025831942125115342
Li0.1053Fe0.0526Sb0.0000Ti0.0526P0.1579O0.6316,Li2.0Fe1.0Sb0.0Ti1.0P3O12,7.040515,
Li0.1130Fe0.0000Sb0.0609Ti0.0435P0.1565O0.6261,Li2.1667Fe0.0Sb1.1667Ti0.8333P3O12,9.055562,
Li0.1130Fe0.0087Sb0.0522Ti0.0435P0.1565O0.6261,Li2.1667Fe0.1667Sb1.0Ti0.8333P3O12,9.055562,0.030141514970295612
Li0.1130Fe0.0261Sb0.0348Ti0.0435P0.1565O0.6261,Li2.1667Fe0.5Sb0.6667Ti0.8333P3O12,7.976324,0.001205314729855368
Li0.1130Fe0.0348Sb0.0261Ti0.0435P0.1565O0.6261,Li2.1667Fe0.6667Sb0.5Ti0.8333P3O12,7.976324,0.001406967151279266
Li0.1130Fe0.0522Sb0.0087Ti0.0435P0.1565O0.6261,Li2.1667Fe1.0Sb0.1667Ti0.8333P3O12,6.972733,0.04362339744904415
Li0.1130Fe0.0609Sb0.0000Ti0.0435P0.1565O0.6261,Li2.1667Fe1.1667Sb0.0Ti0.8333P3O12,7.040515,
Li0.1207Fe0.0000Sb0.0690Ti0.0345P0.1552O0.6207,Li2.3333Fe0.0Sb1.3333Ti0.6667P3O12,9.055562,
Li0.1207Fe0.0172Sb0.0517Ti0.0345P0.1552O0.6207,Li2.3333Fe0.3333Sb1.0Ti0.6667P3O12,9.055562,0.048854306754509656
Li0.1207Fe0.0259Sb0.0431Ti0.0345P0.1552O0.6207,Li2.3333Fe0.5Sb0.8333Ti0.6667P3O12,7.976324,0.001128775399896518
Li0.1207Fe0.0431Sb0.0259Ti0.0345P0.1552O0.6207,Li2.3333Fe0.8333Sb0.5Ti0.6667P3O12,7.8989573,0.0014294171782498664
Li0.1207Fe0.0517Sb0.0172Ti0.0345P0.1552O0.6207,Li2.3333Fe1.0Sb0.3333Ti0.6667P3O12,7.916235,0.06959788690715157
Li0.1207Fe0.0690Sb0.0000Ti0.0345P0.1552O0.6207,Li2.3333Fe1.3333Sb0.0Ti0.6667P3O12,7.040515,
Li0.1282Fe0.0000Sb0.0769Ti0.0256P0.1538O0.6154,Li2.5Fe0.0Sb1.5Ti0.5P3O12,9.055562,
Li0.1282Fe0.0085Sb0.0684Ti0.0256P0.1538O0.6154,Li2.5Fe0.1667Sb1.3333Ti0.5P3O12,9.055562,0.03761881586022415
Li0.1282Fe0.0171Sb0.0598Ti0.0256P0.1538O0.6154,Li2.5Fe0.3333Sb1.1667Ti0.5P3O12,9.055562,0.05496250624834497
Li0.1282Fe0.0256Sb0.0513Ti0.0256P0.1538O0.6154,Li2.5Fe0.5Sb1.0Ti0.5P3O12,7.976324,0.06466750584399167
Li0.1282Fe0.0342Sb0.0427Ti0.0256P0.1538O0.6154,Li2.5Fe0.6667Sb0.8333Ti0.5P3O12,7.976324,0.001145535620107541
Li0.1282Fe0.0427Sb0.0342Ti0.0256P0.1538O0.6154,Li2.5Fe0.8333Sb0.6667Ti0.5P3O12,7.8989573,0.001250451578167805
Li0.1282Fe0.0513Sb0.0256Ti0.0256P0.1538O0.6154,Li2.5Fe1.0Sb0.5Ti0.5P3O12,7.8989573,0.0913168212003906
Li0.1282Fe0.0598Sb0.0171Ti0.0256P0.1538O0.6154,Li2.5Fe1.1667Sb0.3333Ti0.5P3O12,7.984017,0.07380096133475357
Li0.1282Fe0.0684Sb0.0085Ti0.0256P0.1538O0.6154,Li2.5Fe1.3333Sb0.1667Ti0.5P3O12,7.040515,0.049615643568882456
Li0.1282Fe0.0769Sb0.0000Ti0.0256P0.1538O0.6154,Li2.5Fe1.5Sb0.0Ti0.5P3O12,7.040515,
Li0.1356Fe0.0000Sb0.0847Ti0.0169P0.1525O0.6102,Li2.6667Fe0.0Sb1.6667Ti0.3333P3O12,9.055562,
Li0.1356Fe0.0085Sb0.0763Ti0.0169P0.1525O0.6102,Li2.6667Fe0.1667Sb1.5Ti0.3333P3O12,9.055562,0.04419997075526819
Li0.1356Fe0.0254Sb0.0593Ti0.0169P0.1525O0.6102,Li2.6667Fe0.5Sb1.1667Ti0.3333P3O12,7.976324,0.07222180311910464
Li0.1356Fe0.0339Sb0.0508Ti0.0169P0.1525O0.6102,Li2.6667Fe0.6667Sb1.0Ti0.3333P3O12,7.976324,0.08030352546807537
Li0.1356Fe0.0508Sb0.0339Ti0.0169P0.1525O0.6102,Li2.6667Fe1.0Sb0.6667Ti0.3333P3O12,7.8989573,0.1136919271207219
Li0.1356Fe0.0593Sb0.0254Ti0.0169P0.1525O0.6102,Li2.6667Fe1.1667Sb0.5Ti0.3333P3O12,7.966739,0.09777583061210592
Li0.1356Fe0.0763Sb0.0085Ti0.0169P0.1525O0.6102,Li2.6667Fe1.5Sb0.1667Ti0.3333P3O12,7.040515,0.054428515826110836
Li0.1356Fe0.0847Sb0.0000Ti0.0169P0.1525O0.6102,Li2.6667Fe1.6667Sb0.0Ti0.3333P3O12,7.040515,
Li0.1429Fe0.0000Sb0.0924Ti0.0084P0.1513O0.6050,Li2.8333Fe0.0Sb1.8333Ti0.1667P3O12,12.787092,
Li0.1429Fe0.0168Sb0.0756Ti0.0084P0.1513O0.6050,Li2.8333Fe0.3333Sb1.5Ti0.1667P3O12,12.787092,0.07607263279549854
Li0.1429Fe0.0252Sb0.0672Ti0.0084P0.1513O0.6050,Li2.8333Fe0.5Sb1.3333Ti0.1667P3O12,11.707859,0.08803877986329398
Li0.1429Fe0.0420Sb0.0504Ti0.0084P0.1513O0.6050,Li2.8333Fe0.8333Sb1.0Ti0.1667P3O12,11.630493,0.10964889338909495
Li0.1429Fe0.0504Sb0.0420Ti0.0084P0.1513O0.6050,Li2.8333Fe1.0Sb0.8333Ti0.1667P3O12,11.630493,0.1433516143154702
Li0.1429Fe0.0672Sb0.0252Ti0.0084P0.1513O0.6050,Li2.8333Fe1.3333Sb0.5Ti0.1667P3O12,11.698276,0.11014656755863811
Li0.1429Fe0.0756Sb0.0168Ti0.0084P0.1513O0.6050,Li2.8333Fe1.5Sb0.3333Ti0.1667P3O12,11.715552,0.08943952889742483
Li0.1429Fe0.0924Sb0.0000Ti0.0084P0.1513O0.6050,Li2.8333Fe1.8333Sb0.0Ti0.1667P3O12,10.772052,
Li0.1500Fe0.0000Sb0.1000Ti0.0000P0.1500O0.6000,Li3.0Fe0.0Sb2.0Ti0.0P3O12,16.133144,
Li0.1500Fe0.0083Sb0.0917Ti0.0000P0.1500O0.6000,Li3.0Fe0.1667Sb1.8333Ti0.0P3O12,16.133144,
Li0.1500Fe0.0167Sb0.0833Ti0.0000P0.1500O0.6000,Li3.0Fe0.3333Sb1.6667Ti0.0P3O12,16.133144,
Li0.1500Fe0.0250Sb0.0750Ti0.0000P0.1500O0.6000,Li3.0Fe0.5Sb1.5Ti0.0P3O12,14.26786,
Li0.1500Fe0.0333Sb0.0667Ti0.0000P0.1500O0.6000,Li3.0Fe0.6667Sb1.3333Ti0.0P3O12,14.26786,
Li0.1500Fe0.0417Sb0.0583Ti0.0000P0.1500O0.6000,Li3.0Fe0.8333Sb1.1667Ti0.0P3O12,14.190495,
Li0.1500Fe0.0500Sb0.0500Ti0.0000P0.1500O0.6000,Li3.0Fe1.0Sb1.0Ti0.0P3O12,14.190495,
Li0.1500Fe0.0583Sb0.0417Ti0.0000P0.1500O0.6000,Li3.0Fe1.1667Sb0.8333Ti0.0P3O12,14.258277,
Li0.1500Fe0.0667Sb0.0333Ti0.0000P0.1500O0.6000,Li3.0Fe1.3333Sb0.6667Ti0.0P3O12,14.258277,
Li0.1500Fe0.0750Sb0.0250Ti0.0000P0.1500O0.6000,Li3.0Fe1.5Sb0.5Ti0.0P3O12,14.258277,
Li0.1500Fe0.0833Sb0.0167Ti0.0000P0.1500O0.6000,Li3.0Fe1.6667Sb0.3333Ti0.0P3O12,14.275554,
Li0.1500Fe0.0917Sb0.0083Ti0.0000P0.1500O0.6000,Li3.0Fe1.8333Sb0.1667Ti0.0P3O12,13.332053,
Li0.1500Fe0.1000Sb0.0000Ti0.0000P0.1500O0.6000,Li3.0Fe2.0Sb0.0Ti0.0P3O12,13.206304,
Li0.0556Fe0.0000Sc0.0000Ti0.1111P0.1667O0.6667,Li1.0Fe0.0Sc0.0Ti2.0P3O12,7.7087817,
Li0.0642Fe0.0000Sc0.0092Ti0.1009P0.1651O0.6605,Li1.1667Fe0.0Sc0.1667Ti1.8333P3O12,8.985445,
Li0.0642Fe0.0092Sc0.0000Ti0.1009P0.1651O0.6605,Li1.1667Fe0.1667Sc0.0Ti1.8333P3O12,7.7087817,
Li0.0727Fe0.0000Sc0.0182Ti0.0909P0.1636O0.6545,Li1.3333Fe0.0Sc0.3333Ti1.6667P3O12,11.915219,
Li0.0727Fe0.0182Sc0.0000Ti0.0909P0.1636O0.6545,Li1.3333Fe0.3333Sc0.0Ti1.6667P3O12,7.7087817,
Li0.0811Fe0.0000Sc0.0270Ti0.0811P0.1622O0.6486,Li1.5Fe0.0Sc0.5Ti1.5P3O12,6.105611,
Li0.0811Fe0.0090Sc0.0180Ti0.0811P0.1622O0.6486,Li1.5Fe0.1667Sc0.3333Ti1.5P3O12,11.957242,1.0553806517226718
Li0.0811Fe0.0180Sc0.0090Ti0.0811P0.1622O0.6486,Li1.5Fe0.3333Sc0.1667Ti1.5P3O12,9.027468,1.9255718440247467
Li0.0811Fe0.0270Sc0.0000Ti0.0811P0.1622O0.6486,Li1.5Fe0.5Sc0.0Ti1.5P3O12,6.671572,
Li0.0893Fe0.0000Sc0.0357Ti0.0714P0.1607O0.6429,Li1.6667Fe0.0Sc0.6667Ti1.3333P3O12,6.484139,
Li0.0893Fe0.0089Sc0.0268Ti0.0714P0.1607O0.6429,Li1.6667Fe0.1667Sc0.5Ti1.3333P3O12,6.484139,0.9354168763945189
Li0.0893Fe0.0268Sc0.0089Ti0.0714P0.1607O0.6429,Li1.6667Fe0.5Sc0.1667Ti1.3333P3O12,8.326761,2.3591381950480192
Li0.0893Fe0.0357Sc0.0000Ti0.0714P0.1607O0.6429,Li1.6667Fe0.6667Sc0.0Ti1.3333P3O12,7.0501,
Li0.0973Fe0.0000Sc0.0442Ti0.0619P0.1593O0.6372,Li1.8333Fe0.0Sc0.8333Ti1.1667P3O12,6.484139,