formula,original_formula,thermal_expansion,li ion conductivity
Li0.1282As0.0085Bi0.0684Ti0.0256P0.1538O0.6154,Li2.5As0.1667Bi1.3333Ti0.5P3O12,8.129335,0.5392945941828938
Li0.1282As0.0171Bi0.0598Ti0.0256P0.1538O0.6154,Li2.5As0.3333Bi1.1667Ti0.5P3O12,8.129335,0.6067852846168452
Li0.1282As0.0256Bi0.0513Ti0.0256P0.1538O0.6154,Li2.5As0.5Bi1.0Ti0.5P3O12,8.129335,0.6121483045819044
Li0.1282As0.0342Bi0.0427Ti0.0256P0.1538O0.6154,Li2.5As0.6667Bi0.8333Ti0.5P3O12,8.129335,9.700763570993163e-08
Li0.1282As0.0427Bi0.0342Ti0.0256P0.1538O0.6154,Li2.5As0.8333Bi0.6667Ti0.5P3O12,8.129335,8.531015086970078e-08
Li0.1282As0.0513Bi0.0256Ti0.0256P0.1538O0.6154,Li2.5As1.0Bi0.5Ti0.5P3O12,8.129335,0.056209070545089806
Li0.1282As0.0598Bi0.0171Ti0.0256P0.1538O0.6154,Li2.5As1.1667Bi0.3333Ti0.5P3O12,8.129335,0.0492616749234325
Li0.1282As0.0684Bi0.0085Ti0.0256P0.1538O0.6154,Li2.5As1.3333Bi0.1667Ti0.5P3O12,8.129335,0.03945956615346444
Li0.1282As0.0769Bi0.0000Ti0.0256P0.1538O0.6154,Li2.5As1.5Bi0.0Ti0.5P3O12,8.129335,
Li0.1356As0.0000Bi0.0847Ti0.0169P0.1525O0.6102,Li2.6667As0.0Bi1.6667Ti0.3333P3O12,8.129335,
Li0.1356As0.0085Bi0.0763Ti0.0169P0.1525O0.6102,Li2.6667As0.1667Bi1.5Ti0.3333P3O12,8.129335,0.5402137586563917
Li0.1356As0.0254Bi0.0593Ti0.0169P0.1525O0.6102,Li2.6667As0.5Bi1.1667Ti0.3333P3O12,8.129335,0.6460260699320318
Li0.1356As0.0339Bi0.0508Ti0.0169P0.1525O0.6102,Li2.6667As0.6667Bi1.0Ti0.3333P3O12,8.129335,0.6337678275723304
Li0.1356As0.0508Bi0.0339Ti0.0169P0.1525O0.6102,Li2.6667As1.0Bi0.6667Ti0.3333P3O12,8.129335,0.06510493235499104
Li0.1356As0.0593Bi0.0254Ti0.0169P0.1525O0.6102,Li2.6667As1.1667Bi0.5Ti0.3333P3O12,8.129335,0.06004867348611754
Li0.1356As0.0763Bi0.0085Ti0.0169P0.1525O0.6102,Li2.6667As1.5Bi0.1667Ti0.3333P3O12,8.129335,0.041910886872743934
Li0.1356As0.0847Bi0.0000Ti0.0169P0.1525O0.6102,Li2.6667As1.6667Bi0.0Ti0.3333P3O12,8.129335,
Li0.1429As0.0000Bi0.0924Ti0.0084P0.1513O0.6050,Li2.8333As0.0Bi1.8333Ti0.1667P3O12,11.860868,
Li0.1429As0.0168Bi0.0756Ti0.0084P0.1513O0.6050,Li2.8333As0.3333Bi1.5Ti0.1667P3O12,11.860868,0.6978654471737646
Li0.1429As0.0252Bi0.0672Ti0.0084P0.1513O0.6050,Li2.8333As0.5Bi1.3333Ti0.1667P3O12,11.860868,0.7095942440310853
Li0.1429As0.0420Bi0.0504Ti0.0084P0.1513O0.6050,Li2.8333As0.8333Bi1.0Ti0.1667P3O12,11.860868,0.680826080539629
Li0.1429As0.0504Bi0.0420Ti0.0084P0.1513O0.6050,Li2.8333As1.0Bi0.8333Ti0.1667P3O12,11.860868,0.0759171021191818
Li0.1429As0.0672Bi0.0252Ti0.0084P0.1513O0.6050,Li2.8333As1.3333Bi0.5Ti0.1667P3O12,11.860868,0.06580331836484204
Li0.1429As0.0756Bi0.0168Ti0.0084P0.1513O0.6050,Li2.8333As1.5Bi0.3333Ti0.1667P3O12,11.860868,0.0580355742430201
Li0.1429As0.0924Bi0.0000Ti0.0084P0.1513O0.6050,Li2.8333As1.8333Bi0.0Ti0.1667P3O12,11.860868,
Li0.1500As0.0000Bi0.1000Ti0.0000P0.1500O0.6000,Li3.0As0.0Bi2.0Ti0.0P3O12,14.981435,
Li0.1500As0.0083Bi0.0917Ti0.0000P0.1500O0.6000,Li3.0As0.1667Bi1.8333Ti0.0P3O12,15.206924,
Li0.1500As0.0167Bi0.0833Ti0.0000P0.1500O0.6000,Li3.0As0.3333Bi1.6667Ti0.0P3O12,15.206924,
Li0.1500As0.0250Bi0.0750Ti0.0000P0.1500O0.6000,Li3.0As0.5Bi1.5Ti0.0P3O12,15.206924,
Li0.1500As0.0333Bi0.0667Ti0.0000P0.1500O0.6000,Li3.0As0.6667Bi1.3333Ti0.0P3O12,15.206924,
Li0.1500As0.0417Bi0.0583Ti0.0000P0.1500O0.6000,Li3.0As0.8333Bi1.1667Ti0.0P3O12,15.206924,
Li0.1500As0.0500Bi0.0500Ti0.0000P0.1500O0.6000,Li3.0As1.0Bi1.0Ti0.0P3O12,15.206924,
Li0.1500As0.0583Bi0.0417Ti0.0000P0.1500O0.6000,Li3.0As1.1667Bi0.8333Ti0.0P3O12,15.206924,
Li0.1500As0.0667Bi0.0333Ti0.0000P0.1500O0.6000,Li3.0As1.3333Bi0.6667Ti0.0P3O12,15.206924,
Li0.1500As0.0750Bi0.0250Ti0.0000P0.1500O0.6000,Li3.0As1.5Bi0.5Ti0.0P3O12,15.206924,
Li0.1500As0.0833Bi0.0167Ti0.0000P0.1500O0.6000,Li3.0As1.6667Bi0.3333Ti0.0P3O12,15.206924,
Li0.1500As0.0917Bi0.0083Ti0.0000P0.1500O0.6000,Li3.0As1.8333Bi0.1667Ti0.0P3O12,15.206924,
Li0.1500As0.1000Bi0.0000Ti0.0000P0.1500O0.6000,Li3.0As2.0Bi0.0Ti0.0P3O12,15.206924,
Li0.0556B0.0000Al0.0000Ti0.1111P0.1667O0.6667,Li1.0B0.0Al0.0Ti2.0P3O12,7.7087817,
Li0.0642B0.0000Al0.0092Ti0.1009P0.1651O0.6605,Li1.1667B0.0Al0.1667Ti1.8333P3O12,7.7087817,
Li0.0642B0.0092Al0.0000Ti0.1009P0.1651O0.6605,Li1.1667B0.1667Al0.0Ti1.8333P3O12,7.7087817,
Li0.0727B0.0000Al0.0182Ti0.0909P0.1636O0.6545,Li1.3333B0.0Al0.3333Ti1.6667P3O12,9.113234,
Li0.0727B0.0182Al0.0000Ti0.0909P0.1636O0.6545,Li1.3333B0.3333Al0.0Ti1.6667P3O12,7.7087817,
Li0.0811B0.0000Al0.0270Ti0.0811P0.1622O0.6486,Li1.5B0.0Al0.5Ti1.5P3O12,9.155256,
Li0.0811B0.0090Al0.0180Ti0.0811P0.1622O0.6486,Li1.5B0.1667Al0.3333Ti1.5P3O12,9.155256,4.7324108892725105
Li0.1053B0.0439Al0.0088Ti0.0526P0.1579O0.6316,Li2.0B0.8333Al0.1667Ti1.0P3O12,8.129335,13.564166809236658
Li0.0811B0.0270Al0.0000Ti0.0811P0.1622O0.6486,Li1.5B0.5Al0.0Ti1.5P3O12,7.750805,
Li0.0893B0.0000Al0.0357Ti0.0714P0.1607O0.6429,Li1.6667B0.0Al0.6667Ti1.3333P3O12,9.533785,
Li0.0893B0.0089Al0.0268Ti0.0714P0.1607O0.6429,Li1.6667B0.1667Al0.5Ti1.3333P3O12,9.533785,4.097748047226506
Li0.0973B0.0265Ga0.0177Ti0.0619P0.1593O0.6372,Li1.8333B0.5Ga0.3333Ti1.1667P3O12,8.099321,13.535988976113977
Li0.0893B0.0357Al0.0000Ti0.0714P0.1607O0.6429,Li1.6667B0.6667Al0.0Ti1.3333P3O12,8.129335,
Li0.0973B0.0000Al0.0442Ti0.0619P0.1593O0.6372,Li1.8333B0.0Al0.8333Ti1.1667P3O12,9.533785,
Li0.0973B0.0177Al0.0265Ti0.0619P0.1593O0.6372,Li1.8333B0.3333Al0.5Ti1.1667P3O12,9.533785,6.17920913305579
Li0.0893B0.0268Fe0.0089Ti0.0714P0.1607O0.6429,Li1.6667B0.5Fe0.1667Ti1.3333P3O12,8.129335,13.302698650280757
Li0.0973B0.0442Al0.0000Ti0.0619P0.1593O0.6372,Li1.8333B0.8333Al0.0Ti1.1667P3O12,8.129335,
Li0.1053B0.0000Al0.0526Ti0.0526P0.1579O0.6316,Li2.0B0.0Al1.0Ti1.0P3O12,9.533785,
Li0.1053B0.0088Al0.0439Ti0.0526P0.1579O0.6316,Li2.0B0.1667Al0.8333Ti1.0P3O12,9.533785,3.5355629648465006
Li0.1053B0.0175Al0.0351Ti0.0526P0.1579O0.6316,Li2.0B0.3333Al0.6667Ti1.0P3O12,9.533785,5.715363263674655
Li0.1053B0.0439In0.0088Ti0.0526P0.1579O0.6316,Li2.0B0.8333In0.1667Ti1.0P3O12,8.129335,13.0343940723433
Li0.1053B0.0263Ga0.0263Ti0.0526P0.1579O0.6316,Li2.0B0.5Ga0.5Ti1.0P3O12,8.099321,12.712253244722866
Li0.0811B0.0180Ga0.0090Ti0.0811P0.1622O0.6486,Li1.5B0.3333Ga0.1667Ti1.5P3O12,7.750805,12.56829665513317
Li0.1053B0.0526Al0.0000Ti0.0526P0.1579O0.6316,Li2.0B1.0Al0.0Ti1.0P3O12,8.129335,
Li0.1130B0.0000Al0.0609Ti0.0435P0.1565O0.6261,Li2.1667B0.0Al1.1667Ti0.8333P3O12,9.286814,
Li0.1130B0.0087Al0.0522Ti0.0435P0.1565O0.6261,Li2.1667B0.1667Al1.0Ti0.8333P3O12,9.533785,0.5110127322157633
Li0.1130B0.0261Al0.0348Ti0.0435P0.1565O0.6261,Li2.1667B0.5Al0.6667Ti0.8333P3O12,9.533785,0.4376657955861076
Li0.1130B0.0348Al0.0261Ti0.0435P0.1565O0.6261,Li2.1667B0.6667Al0.5Ti0.8333P3O12,9.533785,0.5834976791668374
Li0.1130B0.0522Al0.0087Ti0.0435P0.1565O0.6261,Li2.1667B1.0Al0.1667Ti0.8333P3O12,8.129335,0.5368022048789846
Li0.1130B0.0609Al0.0000Ti0.0435P0.1565O0.6261,Li2.1667B1.1667Al0.0Ti0.8333P3O12,8.129335,
Li0.1207B0.0000Al0.0690Ti0.0345P0.1552O0.6207,Li2.3333B0.0Al1.3333Ti0.6667P3O12,9.286814,
Li0.1207B0.0172Al0.0517Ti0.0345P0.1552O0.6207,Li2.3333B0.3333Al1.0Ti0.6667P3O12,9.533785,0.8112071408689053
Li0.1207B0.0259Al0.0431Ti0.0345P0.1552O0.6207,Li2.3333B0.5Al0.8333Ti0.6667P3O12,9.533785,0.36342798568309526
Li0.1207B0.0431Al0.0259Ti0.0345P0.1552O0.6207,Li2.3333B0.8333Al0.5Ti0.6667P3O12,9.533785,0.5965579627964911
Li0.1207B0.0517Al0.0172Ti0.0345P0.1552O0.6207,Li2.3333B1.0Al0.3333Ti0.6667P3O12,8.129335,1.1584151561724496
Li0.1207B0.0690Al0.0000Ti0.0345P0.1552O0.6207,Li2.3333B1.3333Al0.0Ti0.6667P3O12,8.129335,
Li0.1282B0.0000Al0.0769Ti0.0256P0.1538O0.6154,Li2.5B0.0Al1.5Ti0.5P3O12,9.286814,
Li0.1282B0.0085Al0.0684Ti0.0256P0.1538O0.6154,Li2.5B0.1667Al1.3333Ti0.5P3O12,9.286814,0.594109387908189
Li0.1282B0.0171Al0.0598Ti0.0256P0.1538O0.6154,Li2.5B0.3333Al1.1667Ti0.5P3O12,9.286814,0.9124365925676852
Li0.1282B0.0256Al0.0513Ti0.0256P0.1538O0.6154,Li2.5B0.5Al1.0Ti0.5P3O12,9.533785,1.150817734769522
Li0.1282B0.0342Al0.0427Ti0.0256P0.1538O0.6154,Li2.5B0.6667Al0.8333Ti0.5P3O12,9.533785,0.3836270948740393
Li0.1282B0.0427Al0.0342Ti0.0256P0.1538O0.6154,Li2.5B0.8333Al0.6667Ti0.5P3O12,9.533785,0.4726179814647195
Li0.1282B0.0513Al0.0256Ti0.0256P0.1538O0.6154,Li2.5B1.0Al0.5Ti0.5P3O12,9.533785,1.7328128105565606
Li0.1282B0.0598Al0.0171Ti0.0256P0.1538O0.6154,Li2.5B1.1667Al0.3333Ti0.5P3O12,8.129335,1.3076946229942494
Li0.1282B0.0684Al0.0085Ti0.0256P0.1538O0.6154,Li2.5B1.3333Al0.1667Ti0.5P3O12,8.129335,0.7014636989201034
Li0.1282B0.0769Al0.0000Ti0.0256P0.1538O0.6154,Li2.5B1.5Al0.0Ti0.5P3O12,8.129335,
Li0.1356B0.0000Al0.0847Ti0.0169P0.1525O0.6102,Li2.6667B0.0Al1.6667Ti0.3333P3O12,9.286814,
Li0.1356B0.0085Al0.0763Ti0.0169P0.1525O0.6102,Li2.6667B0.1667Al1.5Ti0.3333P3O12,9.286814,0.7306039771027311
Li0.1356B0.0254Al0.0593Ti0.0169P0.1525O0.6102,Li2.6667B0.5Al1.1667Ti0.3333P3O12,9.286814,1.4332186999596237
Li0.1356B0.0339Al0.0508Ti0.0169P0.1525O0.6102,Li2.6667B0.6667Al1.0Ti0.3333P3O12,9.533785,1.6950759301607148
Li0.1356B0.0508Al0.0339Ti0.0169P0.1525O0.6102,Li2.6667B1.0Al0.6667Ti0.3333P3O12,9.533785,2.4077101024013743
Li0.1356B0.0593Al0.0254Ti0.0169P0.1525O0.6102,Li2.6667B1.1667Al0.5Ti0.3333P3O12,9.533785,2.0505532509904234
Li0.1356B0.0763Al0.0085Ti0.0169P0.1525O0.6102,Li2.6667B1.5Al0.1667Ti0.3333P3O12,8.129335,0.8641876906524778
Li0.1356B0.0847Al0.0000Ti0.0169P0.1525O0.6102,Li2.6667B1.6667Al0.0Ti0.3333P3O12,8.129335,
Li0.1429B0.0000Al0.0924Ti0.0084P0.1513O0.6050,Li2.8333B0.0Al1.8333Ti0.1667P3O12,13.018343,
Li0.1429B0.0168Al0.0756Ti0.0084P0.1513O0.6050,Li2.8333B0.3333Al1.5Ti0.1667P3O12,13.018343,1.640621871759972
Li0.1429B0.0252Al0.0672Ti0.0084P0.1513O0.6050,Li2.8333B0.5Al1.3333Ti0.1667P3O12,13.018343,2.099569247457372
Li0.1429B0.0420Al0.0504Ti0.0084P0.1513O0.6050,Li2.8333B0.8333Al1.0Ti0.1667P3O12,13.265314,2.795922293608711
Li0.1429B0.0504Al0.0420Ti0.0084P0.1513O0.6050,Li2.8333B1.0Al0.8333Ti0.1667P3O12,13.265314,3.5999252911862385
Li0.1429B0.0672Al0.0252Ti0.0084P0.1513O0.6050,Li2.8333B1.3333Al0.5Ti0.1667P3O12,13.265314,2.8279769087552684
Li0.1429B0.0756Al0.0168Ti0.0084P0.1513O0.6050,Li2.8333B1.5Al0.3333Ti0.1667P3O12,11.860868,2.1477279797947206
Li0.1429B0.0924Al0.0000Ti0.0084P0.1513O0.6050,Li2.8333B1.8333Al0.0Ti0.1667P3O12,11.860868,
Li0.1500B0.0000Al0.1000Ti0.0000P0.1500O0.6000,Li3.0B0.0Al2.0Ti0.0P3O12,15.867943,
Li0.1500B0.0083Al0.0917Ti0.0000P0.1500O0.6000,Li3.0B0.1667Al1.8333Ti0.0P3O12,15.070612,
Li0.1500B0.0167Al0.0833Ti0.0000P0.1500O0.6000,Li3.0B0.3333Al1.6667Ti0.0P3O12,15.070612,
Li0.1500B0.0250Al0.0750Ti0.0000P0.1500O0.6000,Li3.0B0.5Al1.5Ti0.0P3O12,15.070612,
Li0.1500B0.0333Al0.0667Ti0.0000P0.1500O0.6000,Li3.0B0.6667Al1.3333Ti0.0P3O12,15.070612,
Li0.1500B0.0417Al0.0583Ti0.0000P0.1500O0.6000,Li3.0B0.8333Al1.1667Ti0.0P3O12,15.317582,
Li0.1500B0.0500Al0.0500Ti0.0000P0.1500O0.6000,Li3.0B1.0Al1.0Ti0.0P3O12,15.317582,
Li0.1500B0.0583Al0.0417Ti0.0000P0.1500O0.6000,Li3.0B1.1667Al0.8333Ti0.0P3O12,15.317582,
Li0.1500B0.0667Al0.0333Ti0.0000P0.1500O0.6000,Li3.0B1.3333Al0.6667Ti0.0P3O12,15.317582,
Li0.1500B0.0750Al0.0250Ti0.0000P0.1500O0.6000,Li3.0B1.5Al0.5Ti0.0P3O12,15.317582,
Li0.1500B0.0833Al0.0167Ti0.0000P0.1500O0.6000,Li3.0B1.6667Al0.3333Ti0.0P3O12,15.206924,
Li0.1500B0.0917Al0.0083Ti0.0000P0.1500O0.6000,Li3.0B1.8333Al0.1667Ti0.0P3O12,15.206924,
Li0.1500B0.1000Al0.0000Ti0.0000P0.1500O0.6000,Li3.0B2.0Al0.0Ti0.0P3O12,15.206924,
Li0.0556B0.0000As0.0000Ti0.1111P0.1667O0.6667,Li1.0B0.0As0.0Ti2.0P3O12,7.7087817,
Li0.0642B0.0000As0.0092Ti0.1009P0.1651O0.6605,Li1.1667B0.0As0.1667Ti1.8333P3O12,7.7087817,
Li0.0642B0.0092As0.0000Ti0.1009P0.1651O0.6605,Li1.1667B0.1667As0.0Ti1.8333P3O12,7.7087817,
Li0.0727B0.0000As0.0182Ti0.0909P0.1636O0.6545,Li1.3333B0.0As0.3333Ti1.6667P3O12,7.7087817,
Li0.0727B0.0182As0.0000Ti0.0909P0.1636O0.6545,Li1.3333B0.3333As0.0Ti1.6667P3O12,7.7087817,
Li0.0811B0.0000As0.0270Ti0.0811P0.1622O0.6486,Li1.5B0.0As0.5Ti1.5P3O12,7.750805,
Li0.1053B0.0439Co0.0088Ti0.0526P0.1579O0.6316,Li2.0B0.8333Co0.1667Ti1.0P3O12,8.129335,12.56267119337763
Li0.0893B0.0268Mn0.0089Ti0.0714P0.1607O0.6429,Li1.6667B0.5Mn0.1667Ti1.3333P3O12,8.129335,12.362433202400531
Li0.0811B0.0270As0.0000Ti0.0811P0.1622O0.6486,Li1.5B0.5As0.0Ti1.5P3O12,7.750805,
Li0.0893B0.0000As0.0357Ti0.0714P0.1607O0.6429,Li1.6667B0.0As0.6667Ti1.3333P3O12,8.129335,
Li0.0893B0.0089As0.0268Ti0.0714P0.1607O0.6429,Li1.6667B0.1667As0.5Ti1.3333P3O12,8.129335,6.4451346804766
Li0.1053B0.0351As0.0175Ti0.0526P0.1579O0.6316,Li2.0B0.6667As0.3333Ti1.0P3O12,8.129335,12.300264232756273
Li0.0893B0.0357As0.0000Ti0.0714P0.1607O0.6429,Li1.6667B0.6667As0.0Ti1.3333P3O12,8.129335,
Li0.0973B0.0000As0.0442Ti0.0619P0.1593O0.6372,Li1.8333B0.0As0.8333Ti1.1667P3O12,8.129335,
Li0.0811B0.0180As0.0090Ti0.0811P0.1622O0.6486,Li1.5B0.3333As0.1667Ti1.5P3O12,7.750805,12.288658629787374
Li0.1429B0.0420Mn0.0504Ti0.0084P0.1513O0.6050,Li2.8333B0.8333Mn1.0Ti0.1667P3O12,9.4228525,11.759104504266059
Li0.0973B0.0442As0.0000Ti0.0619P0.1593O0.6372,Li1.8333B0.8333As0.0Ti1.1667P3O12,8.129335,
Li0.1053B0.0000As0.0526Ti0.0526P0.1579O0.6316,Li2.0B0.0As1.0Ti1.0P3O12,8.129335,
Li0.1053B0.0088As0.0439Ti0.0526P0.1579O0.6316,Li2.0B0.1667As0.8333Ti1.0P3O12,8.129335,4.911714987254535
Li0.1429Mn0.0504B0.0420Ti0.0084P0.1513O0.6050,Li2.8333Mn1.0B0.8333Ti0.1667P3O12,9.4228525,11.759104504266059
Li0.1053B0.0351Fe0.0175Ti0.0526P0.1579O0.6316,Li2.0B0.6667Fe0.3333Ti1.0P3O12,8.129335,11.619870366262042
Li0.1053B0.0439Sc0.0088Ti0.0526P0.1579O0.6316,Li2.0B0.8333Sc0.1667Ti1.0P3O12,9.405996,11.511990750829202
Li0.1429B0.0420Fe0.0504Ti0.0084P0.1513O0.6050,Li2.8333B0.8333Fe1.0Ti0.1667P3O12,10.704269,11.437076841958357
Li0.1053B0.0526As0.0000Ti0.0526P0.1579O0.6316,Li2.0B1.0As0.0Ti1.0P3O12,8.129335,
Li0.1130B0.0000As0.0609Ti0.0435P0.1565O0.6261,Li2.1667B0.0As1.1667Ti0.8333P3O12,8.129335,
Li0.1130B0.0087As0.0522Ti0.0435P0.1565O0.6261,Li2.1667B0.1667As1.0Ti0.8333P3O12,8.129335,0.32056272334867136
Li0.1130B0.0261As0.0348Ti0.0435P0.1565O0.6261,Li2.1667B0.5As0.6667Ti0.8333P3O12,8.129335,0.0025839260659282484
Li0.1130B0.0348As0.0261Ti0.0435P0.1565O0.6261,Li2.1667B0.6667As0.5Ti0.8333P3O12,8.129335,0.004395798697526013
Li0.1130B0.0522As0.0087Ti0.0435P0.1565O0.6261,Li2.1667B1.0As0.1667Ti0.8333P3O12,8.129335,1.0644706784257398
Li0.1130B0.0609As0.0000Ti0.0435P0.1565O0.6261,Li2.1667B1.1667As0.0Ti0.8333P3O12,8.129335,
Li0.1207B0.0000As0.0690Ti0.0345P0.1552O0.6207,Li2.3333B0.0As1.3333Ti0.6667P3O12,8.129335,
Li0.1207B0.0172As0.0517Ti0.0345P0.1552O0.6207,Li2.3333B0.3333As1.0Ti0.6667P3O12,8.129335,0.5383991604480775
Li0.1207B0.0259As0.0431Ti0.0345P0.1552O0.6207,Li2.3333B0.5As0.8333Ti0.6667P3O12,8.129335,0.0016511111073654325
Li0.1207B0.0431As0.0259Ti0.0345P0.1552O0.6207,Li2.3333B0.8333As0.5Ti0.6667P3O12,8.129335,0.0042732123118519715
Li0.1207B0.0517As0.0172Ti0.0345P0.1552O0.6207,Li2.3333B1.0As0.3333Ti0.6667P3O12,8.129335,1.5436736074973276
Li0.1207B0.0690As0.0000Ti0.0345P0.1552O0.6207,Li2.3333B1.3333As0.0Ti0.6667P3O12,8.129335,
Li0.1282B0.0000As0.0769Ti0.0256P0.1538O0.6154,Li2.5B0.0As1.5Ti0.5P3O12,8.129335,
Li0.1282B0.0085As0.0684Ti0.0256P0.1538O0.6154,Li2.5B0.1667As1.3333Ti0.5P3O12,8.129335,0.3943929526555255
Li0.1282B0.0171As0.0598Ti0.0256P0.1538O0.6154,Li2.5B0.3333As1.1667Ti0.5P3O12,8.129335,0.6254620889589249
Li0.1282B0.0256As0.0513Ti0.0256P0.1538O0.6154,Li2.5B0.5As1.0Ti0.5P3O12,8.129335,0.7883840220927234
Li0.1282B0.0342As0.0427Ti0.0256P0.1538O0.6154,Li2.5B0.6667As0.8333Ti0.5P3O12,8.129335,0.0016429084563059277
Li0.1282B0.0427As0.0342Ti0.0256P0.1538O0.6154,Li2.5B0.8333As0.6667Ti0.5P3O12,8.129335,0.0024905461520009853
Li0.1282B0.0513As0.0256Ti0.0256P0.1538O0.6154,Li2.5B1.0As0.5Ti0.5P3O12,8.129335,1.891559226453378
Li0.1282B0.0598As0.0171Ti0.0256P0.1538O0.6154,Li2.5B1.1667As0.3333Ti0.5P3O12,8.129335,1.6903478439485011
Li0.1282B0.0684As0.0085Ti0.0256P0.1538O0.6154,Li2.5B1.3333As0.1667Ti0.5P3O12,8.129335,1.2569480021020354
Li0.1282B0.0769As0.0000Ti0.0256P0.1538O0.6154,Li2.5B1.5As0.0Ti0.5P3O12,8.129335,
Li0.1356B0.0000As0.0847Ti0.0169P0.1525O0.6102,Li2.6667B0.0As1.6667Ti0.3333P3O12,8.129335,
Li0.1356B0.0085As0.0763Ti0.0169P0.1525O0.6102,Li2.6667B0.1667As1.5Ti0.3333P3O12,8.129335,0.48610720034067895
Li0.1356B0.0254As0.0593Ti0.0169P0.1525O0.6102,Li2.6667B0.5As1.1667Ti0.3333P3O12,8.129335,0.9957347711582354
Li0.1356B0.0339As0.0508Ti0.0169P0.1525O0.6102,Li2.6667B0.6667As1.0Ti0.3333P3O12,8.129335,1.1401475543114574
Li0.1356B0.0508As0.0339Ti0.0169P0.1525O0.6102,Li2.6667B1.0As0.6667Ti0.3333P3O12,8.129335,2.2954431801350257
Li0.1356B0.0593As0.0254Ti0.0169P0.1525O0.6102,Li2.6667B1.1667As0.5Ti0.3333P3O12,8.129335,2.174595585175814
Li0.1356B0.0763As0.0085Ti0.0169P0.1525O0.6102,Li2.6667B1.5As0.1667Ti0.3333P3O12,8.129335,1.437356184661648
Li0.1356B0.0847As0.0000Ti0.0169P0.1525O0.6102,Li2.6667B1.6667As0.0Ti0.3333P3O12,8.129335,
Li0.1429B0.0000As0.0924Ti0.0084P0.1513O0.6050,Li2.8333B0.0As1.8333Ti0.1667P3O12,11.860868,
Li0.1429B0.0168As0.0756Ti0.0084P0.1513O0.6050,Li2.8333B0.3333As1.5Ti0.1667P3O12,11.860868,1.1292222738624849
Li0.1429B0.0252As0.0672Ti0.0084P0.1513O0.6050,Li2.8333B0.5As1.3333Ti0.1667P3O12,11.860868,1.455850208522783
Li0.1429B0.0420As0.0504Ti0.0084P0.1513O0.6050,Li2.8333B0.8333As1.0Ti0.1667P3O12,11.860868,1.8426833682841048
Li0.1429B0.0504As0.0420Ti0.0084P0.1513O0.6050,Li2.8333B1.0As0.8333Ti0.1667P3O12,11.860868,2.9569422179797558
Li0.1429B0.0672As0.0252Ti0.0084P0.1513O0.6050,Li2.8333B1.3333As0.5Ti0.1667P3O12,11.860868,2.8015303067825923
Li0.1429B0.0756As0.0168Ti0.0084P0.1513O0.6050,Li2.8333B1.5As0.3333Ti0.1667P3O12,11.860868,2.472404776813906
Li0.1429B0.0924As0.0000Ti0.0084P0.1513O0.6050,Li2.8333B1.8333As0.0Ti0.1667P3O12,11.860868,
Li0.1500B0.0000As0.1000Ti0.0000P0.1500O0.6000,Li3.0B0.0As2.0Ti0.0P3O12,15.206924,
Li0.1500B0.0083As0.0917Ti0.0000P0.1500O0.6000,Li3.0B0.1667As1.8333Ti0.0P3O12,15.206924,
Li0.1500B0.0167As0.0833Ti0.0000P0.1500O0.6000,Li3.0B0.3333As1.6667Ti0.0P3O12,15.206924,
Li0.1500B0.0250As0.0750Ti0.0000P0.1500O0.6000,Li3.0B0.5As1.5Ti0.0P3O12,15.206924,
Li0.1500B0.0333As0.0667Ti0.0000P0.1500O0.6000,Li3.0B0.6667As1.3333Ti0.0P3O12,15.206924,
Li0.1500B0.0417As0.0583Ti0.0000P0.1500O0.6000,Li3.0B0.8333As1.1667Ti0.0P3O12,15.206924,
Li0.1500B0.0500As0.0500Ti0.0000P0.1500O0.6000,Li3.0B1.0As1.0Ti0.0P3O12,15.206924,
Li0.1500B0.0583As0.0417Ti0.0000P0.1500O0.6000,Li3.0B1.1667As0.8333Ti0.0P3O12,15.206924,
Li0.1500B0.0667As0.0333Ti0.0000P0.1500O0.6000,Li3.0B1.3333As0.6667Ti0.0P3O12,15.206924,
Li0.1500B0.0750As0.0250Ti0.0000P0.1500O0.6000,Li3.0B1.5As0.5Ti0.0P3O12,15.206924,
Li0.1500B0.0833As0.0167Ti0.0000P0.1500O0.6000,Li3.0B1.6667As0.3333Ti0.0P3O12,15.206924,
Li0.1500B0.0917As0.0083Ti0.0000P0.1500O0.6000,Li3.0B1.8333As0.1667Ti0.0P3O12,15.206924,
Li0.1500B0.1000As0.0000Ti0.0000P0.1500O0.6000,Li3.0B2.0As0.0Ti0.0P3O12,15.206924,
Li0.0556B0.0000Ti0.1111P0.1667O0.6667,Li1.0B0.0B0.0Ti2.0P3O12,7.7087817,
Li0.0642B0.0092Ti0.1009P0.1651O0.6605,Li1.1667B0.0B0.1667Ti1.8333P3O12,7.7087817,1.6529730465325865
Li0.0642B0.0092Ti0.1009P0.1651O0.6605,Li1.1667B0.1667B0.0Ti1.8333P3O12,7.7087817,
Li0.0727B0.0182Ti0.0909P0.1636O0.6545,Li1.3333B0.0B0.3333Ti1.6667P3O12,7.7087817,2.584625489443197
Li0.0727B0.0182Ti0.0909P0.1636O0.6545,Li1.3333B0.3333B0.0Ti1.6667P3O12,7.7087817,
Li0.0811B0.0270Ti0.0811P0.1622O0.6486,Li1.5B0.0B0.5Ti1.5P3O12,7.750805,3.1393863743193573
Li0.0811B0.0270Ti0.0811P0.1622O0.6486,Li1.5B0.1667B0.3333Ti1.5P3O12,7.750805,2.5137492845602902
Li0.0811B0.0270Ti0.0811P0.1622O0.6486,Li1.5B0.3333B0.1667Ti1.5P3O12,7.750805,1.5924269063284067
Li0.0811B0.0270Ti0.0811P0.1622O0.6486,Li1.5B0.5B0.0Ti1.5P3O12,7.750805,
Li0.0893B0.0357Ti0.0714P0.1607O0.6429,Li1.6667B0.0B0.6667Ti1.3333P3O12,8.129335,3.526212210765934
Li0.0893B0.0357Ti0.0714P0.1607O0.6429,Li1.6667B0.1667B0.5Ti1.3333P3O12,8.129335,3.062247960016364
Li0.0893B0.0357Ti0.0714P0.1607O0.6429,Li1.6667B0.5B0.1667Ti1.3333P3O12,8.129335,1.5510010006326516
Li0.0893B0.0357Ti0.0714P0.1607O0.6429,Li1.6667B0.6667B0.0Ti1.3333P3O12,8.129335,
Li0.0973B0.0442Ti0.0619P0.1593O0.6372,Li1.8333B0.0B0.8333Ti1.1667P3O12,8.129335,3.7992727263914747
Li0.0973B0.0442Ti0.0619P0.1593O0.6372,Li1.8333B0.3333B0.5Ti1.1667P3O12,8.129335,2.9821927083783137
Li0.0973B0.0442Ti0.0619P0.1593O0.6372,Li1.8333B0.5B0.3333Ti1.1667P3O12,8.129335,2.389600079254121
Li0.0973B0.0442Ti0.0619P0.1593O0.6372,Li1.8333B0.8333B0.0Ti1.1667P3O12,8.129335,