formula,original_formula,thermal_expansion,li ion conductivity
Li0.1429Cr0.0924Ti0.0084P0.1513O0.6050,Li2.8333Cr0.3333Cr1.5Ti0.1667P3O12,17.431204,0.011946848104802059
Li0.1429Cr0.0924Ti0.0084P0.1513O0.6050,Li2.8333Cr0.5Cr1.3333Ti0.1667P3O12,17.431204,0.011865355070472107
Li0.1429Cr0.0924Ti0.0084P0.1513O0.6050,Li2.8333Cr0.8333Cr1.0Ti0.1667P3O12,17.431204,0.011681386457096868
Li0.1429Cr0.0924Ti0.0084P0.1513O0.6050,Li2.8333Cr1.0Cr0.8333Ti0.1667P3O12,17.431204,0.30610546058310045
Li0.1429Cr0.0924Ti0.0084P0.1513O0.6050,Li2.8333Cr1.3333Cr0.5Ti0.1667P3O12,17.431204,0.23505323300245484
Li0.1429Cr0.0924Ti0.0084P0.1513O0.6050,Li2.8333Cr1.5Cr0.3333Ti0.1667P3O12,17.431204,0.1819004665620234
Li0.1429Cr0.0924Ti0.0084P0.1513O0.6050,Li2.8333Cr1.8333Cr0.0Ti0.1667P3O12,17.431204,
Li0.1500Cr0.1000Ti0.0000P0.1500O0.6000,Li3.0Cr0.0Cr2.0Ti0.0P3O12,17.903326,
Li0.1500Cr0.1000Ti0.0000P0.1500O0.6000,Li3.0Cr0.1667Cr1.8333Ti0.0P3O12,17.903326,
Li0.1500Cr0.1000Ti0.0000P0.1500O0.6000,Li3.0Cr0.3333Cr1.6667Ti0.0P3O12,17.903326,
Li0.1500Cr0.1000Ti0.0000P0.1500O0.6000,Li3.0Cr0.5Cr1.5Ti0.0P3O12,17.903326,
Li0.1500Cr0.1000Ti0.0000P0.1500O0.6000,Li3.0Cr0.6667Cr1.3333Ti0.0P3O12,17.903326,
Li0.1500Cr0.1000Ti0.0000P0.1500O0.6000,Li3.0Cr0.8333Cr1.1667Ti0.0P3O12,17.903326,
Li0.1500Cr0.1000Ti0.0000P0.1500O0.6000,Li3.0Cr1.0Cr1.0Ti0.0P3O12,17.903326,
Li0.1500Cr0.1000Ti0.0000P0.1500O0.6000,Li3.0Cr1.1667Cr0.8333Ti0.0P3O12,17.903326,
Li0.1500Cr0.1000Ti0.0000P0.1500O0.6000,Li3.0Cr1.3333Cr0.6667Ti0.0P3O12,17.903326,
Li0.1500Cr0.1000Ti0.0000P0.1500O0.6000,Li3.0Cr1.5Cr0.5Ti0.0P3O12,17.903326,
Li0.1500Cr0.1000Ti0.0000P0.1500O0.6000,Li3.0Cr1.6667Cr0.3333Ti0.0P3O12,17.903326,
Li0.1500Cr0.1000Ti0.0000P0.1500O0.6000,Li3.0Cr1.8333Cr0.1667Ti0.0P3O12,17.903326,
Li0.1500Cr0.1000Ti0.0000P0.1500O0.6000,Li3.0Cr2.0Cr0.0Ti0.0P3O12,17.903326,
Li0.0556Cr0.0000Fe0.0000Ti0.1111P0.1667O0.6667,Li1.0Cr0.0Fe0.0Ti2.0P3O12,7.7087817,
Li0.0642Cr0.0000Fe0.0092Ti0.1009P0.1651O0.6605,Li1.1667Cr0.0Fe0.1667Ti1.8333P3O12,7.7087817,
Li0.0642Cr0.0092Fe0.0000Ti0.1009P0.1651O0.6605,Li1.1667Cr0.1667Fe0.0Ti1.8333P3O12,7.7087817,
Li0.0727Cr0.0000Fe0.0182Ti0.0909P0.1636O0.6545,Li1.3333Cr0.0Fe0.3333Ti1.6667P3O12,7.7087817,
Li0.0727Cr0.0182Fe0.0000Ti0.0909P0.1636O0.6545,Li1.3333Cr0.3333Fe0.0Ti1.6667P3O12,7.7087817,
Li0.0811Cr0.0000Fe0.0270Ti0.0811P0.1622O0.6486,Li1.5Cr0.0Fe0.5Ti1.5P3O12,6.671572,
Li0.0811Cr0.0090Fe0.0180Ti0.0811P0.1622O0.6486,Li1.5Cr0.1667Fe0.3333Ti1.5P3O12,7.750805,0.13846340618350592
Li0.0811Cr0.0180Fe0.0090Ti0.0811P0.1622O0.6486,Li1.5Cr0.3333Fe0.1667Ti1.5P3O12,7.750805,0.2661737210602023
Li0.0811Cr0.0270Fe0.0000Ti0.0811P0.1622O0.6486,Li1.5Cr0.5Fe0.0Ti1.5P3O12,7.750805,
Li0.0893Cr0.0000Fe0.0357Ti0.0714P0.1607O0.6429,Li1.6667Cr0.0Fe0.6667Ti1.3333P3O12,7.0501,
Li0.0893Cr0.0089Fe0.0268Ti0.0714P0.1607O0.6429,Li1.6667Cr0.1667Fe0.5Ti1.3333P3O12,7.0501,0.12573565716515242
Li0.0893Cr0.0268Fe0.0089Ti0.0714P0.1607O0.6429,Li1.6667Cr0.5Fe0.1667Ti1.3333P3O12,8.129335,0.36032726892664363
Li0.0893Cr0.0357Fe0.0000Ti0.0714P0.1607O0.6429,Li1.6667Cr0.6667Fe0.0Ti1.3333P3O12,8.129335,
Li0.0973Cr0.0000Fe0.0442Ti0.0619P0.1593O0.6372,Li1.8333Cr0.0Fe0.8333Ti1.1667P3O12,6.972733,
Li0.0973Cr0.0177Fe0.0265Ti0.0619P0.1593O0.6372,Li1.8333Cr0.3333Fe0.5Ti1.1667P3O12,7.0501,0.23434394410363363
Li0.0973Cr0.0265Fe0.0177Ti0.0619P0.1593O0.6372,Li1.8333Cr0.5Fe0.3333Ti1.1667P3O12,8.129335,0.3348204555834881
Li0.0973Cr0.0442Fe0.0000Ti0.0619P0.1593O0.6372,Li1.8333Cr0.8333Fe0.0Ti1.1667P3O12,7.845156,
Li0.1053Cr0.0000Fe0.0526Ti0.0526P0.1579O0.6316,Li2.0Cr0.0Fe1.0Ti1.0P3O12,7.040515,
Li0.1053Cr0.0088Fe0.0439Ti0.0526P0.1579O0.6316,Li2.0Cr0.1667Fe0.8333Ti1.0P3O12,6.972733,0.11252827541130196
Li0.1053Cr0.0175Fe0.0351Ti0.0526P0.1579O0.6316,Li2.0Cr0.3333Fe0.6667Ti1.0P3O12,7.0501,0.22738319053072842
Li0.1053Cr0.0263Fe0.0263Ti0.0526P0.1579O0.6316,Li2.0Cr0.5Fe0.5Ti1.0P3O12,7.0501,0.32878986433551854
Li0.1053Cr0.0351Fe0.0175Ti0.0526P0.1579O0.6316,Li2.0Cr0.6667Fe0.3333Ti1.0P3O12,8.129335,0.4121778485327773
Li0.1053Cr0.0439Fe0.0088Ti0.0526P0.1579O0.6316,Li2.0Cr0.8333Fe0.1667Ti1.0P3O12,7.845156,0.5036647106383532
Li0.1053Cr0.0526Fe0.0000Ti0.0526P0.1579O0.6316,Li2.0Cr1.0Fe0.0Ti1.0P3O12,7.845156,
Li0.1130Cr0.0000Fe0.0609Ti0.0435P0.1565O0.6261,Li2.1667Cr0.0Fe1.1667Ti0.8333P3O12,7.040515,
Li0.1130Cr0.0087Fe0.0522Ti0.0435P0.1565O0.6261,Li2.1667Cr0.1667Fe1.0Ti0.8333P3O12,6.972733,0.09803554172368538
Li0.1130Cr0.0261Fe0.0348Ti0.0435P0.1565O0.6261,Li2.1667Cr0.5Fe0.6667Ti0.8333P3O12,7.0501,0.05138004129734022
Li0.1130Cr0.0348Fe0.0261Ti0.0435P0.1565O0.6261,Li2.1667Cr0.6667Fe0.5Ti0.8333P3O12,7.0501,0.0627809265600481
Li0.1130Cr0.0522Fe0.0087Ti0.0435P0.1565O0.6261,Li2.1667Cr1.0Fe0.1667Ti0.8333P3O12,7.845156,0.27464667587345093
Li0.1130Cr0.0609Fe0.0000Ti0.0435P0.1565O0.6261,Li2.1667Cr1.1667Fe0.0Ti0.8333P3O12,13.286617,
Li0.1207Cr0.0000Fe0.0690Ti0.0345P0.1552O0.6207,Li2.3333Cr0.0Fe1.3333Ti0.6667P3O12,7.040515,
Li0.1207Cr0.0172Fe0.0517Ti0.0345P0.1552O0.6207,Li2.3333Cr0.3333Fe1.0Ti0.6667P3O12,6.972733,0.20143197364388676
Li0.1207Cr0.0259Fe0.0431Ti0.0345P0.1552O0.6207,Li2.3333Cr0.5Fe0.8333Ti0.6667P3O12,6.972733,0.04910189044738381
Li0.1207Cr0.0431Fe0.0259Ti0.0345P0.1552O0.6207,Li2.3333Cr0.8333Fe0.5Ti0.6667P3O12,6.7659235,0.06739217408120605
Li0.1207Cr0.0517Fe0.0172Ti0.0345P0.1552O0.6207,Li2.3333Cr1.0Fe0.3333Ti0.6667P3O12,7.845156,0.4243655738133692
Li0.1207Cr0.0690Fe0.0000Ti0.0345P0.1552O0.6207,Li2.3333Cr1.3333Fe0.0Ti0.6667P3O12,13.286617,
Li0.1282Cr0.0000Fe0.0769Ti0.0256P0.1538O0.6154,Li2.5Cr0.0Fe1.5Ti0.5P3O12,7.040515,
Li0.1282Cr0.0085Fe0.0684Ti0.0256P0.1538O0.6154,Li2.5Cr0.1667Fe1.3333Ti0.5P3O12,7.040515,0.12113625024141417
Li0.1282Cr0.0171Fe0.0598Ti0.0256P0.1538O0.6154,Li2.5Cr0.3333Fe1.1667Ti0.5P3O12,7.040515,0.21852932586224047
Li0.1282Cr0.0256Fe0.0513Ti0.0256P0.1538O0.6154,Li2.5Cr0.5Fe1.0Ti0.5P3O12,6.972733,0.30345632569431813
Li0.1282Cr0.0342Fe0.0427Ti0.0256P0.1538O0.6154,Li2.5Cr0.6667Fe0.8333Ti0.5P3O12,6.972733,0.05429016780315842
Li0.1282Cr0.0427Fe0.0342Ti0.0256P0.1538O0.6154,Li2.5Cr0.8333Fe0.6667Ti0.5P3O12,6.7659235,0.06176818056389199
Li0.1282Cr0.0513Fe0.0256Ti0.0256P0.1538O0.6154,Li2.5Cr1.0Fe0.5Ti0.5P3O12,6.7659235,0.5327417389775785
Li0.1282Cr0.0598Fe0.0171Ti0.0256P0.1538O0.6154,Li2.5Cr1.1667Fe0.3333Ti0.5P3O12,7.845156,0.4566919789505244
Li0.1282Cr0.0684Fe0.0085Ti0.0256P0.1538O0.6154,Li2.5Cr1.3333Fe0.1667Ti0.5P3O12,13.286617,0.31986483452179865
Li0.1282Cr0.0769Fe0.0000Ti0.0256P0.1538O0.6154,Li2.5Cr1.5Fe0.0Ti0.5P3O12,13.286617,
Li0.1356Cr0.0000Fe0.0847Ti0.0169P0.1525O0.6102,Li2.6667Cr0.0Fe1.6667Ti0.3333P3O12,7.040515,
Li0.1356Cr0.0085Fe0.0763Ti0.0169P0.1525O0.6102,Li2.6667Cr0.1667Fe1.5Ti0.3333P3O12,7.040515,0.13895021432649976
Li0.1356Cr0.0254Fe0.0593Ti0.0169P0.1525O0.6102,Li2.6667Cr0.5Fe1.1667Ti0.3333P3O12,7.040515,0.3277203477308726
Li0.1356Cr0.0339Fe0.0508Ti0.0169P0.1525O0.6102,Li2.6667Cr0.6667Fe1.0Ti0.3333P3O12,6.972733,0.39538887093217945
Li0.1356Cr0.0508Fe0.0339Ti0.0169P0.1525O0.6102,Li2.6667Cr1.0Fe0.6667Ti0.3333P3O12,6.7659235,0.6472863221358028
Li0.1356Cr0.0593Fe0.0254Ti0.0169P0.1525O0.6102,Li2.6667Cr1.1667Fe0.5Ti0.3333P3O12,6.7659235,0.5915695290814745
Li0.1356Cr0.0763Fe0.0085Ti0.0169P0.1525O0.6102,Li2.6667Cr1.5Fe0.1667Ti0.3333P3O12,13.286617,0.36411496361261014
Li0.1356Cr0.0847Fe0.0000Ti0.0169P0.1525O0.6102,Li2.6667Cr1.6667Fe0.0Ti0.3333P3O12,13.699678,
Li0.1429Cr0.0000Fe0.0924Ti0.0084P0.1513O0.6050,Li2.8333Cr0.0Fe1.8333Ti0.1667P3O12,10.772052,
Li0.1429Cr0.0168Fe0.0756Ti0.0084P0.1513O0.6050,Li2.8333Cr0.3333Fe1.5Ti0.1667P3O12,10.772052,0.2897096343559905
Li0.1429Cr0.0252Fe0.0672Ti0.0084P0.1513O0.6050,Li2.8333Cr0.5Fe1.3333Ti0.1667P3O12,10.772052,0.38610819814941705
Li0.1429Cr0.0420Fe0.0504Ti0.0084P0.1513O0.6050,Li2.8333Cr0.8333Fe1.0Ti0.1667P3O12,10.420093,0.5204104694814341
Li0.1429Cr0.0504Fe0.0420Ti0.0084P0.1513O0.6050,Li2.8333Cr1.0Fe0.8333Ti0.1667P3O12,10.420093,0.8312398819358936
Li0.1429Cr0.0672Fe0.0252Ti0.0084P0.1513O0.6050,Li2.8333Cr1.3333Fe0.5Ti0.1667P3O12,15.938914,0.7354014096355336
Li0.1429Cr0.0756Fe0.0168Ti0.0084P0.1513O0.6050,Li2.8333Cr1.5Fe0.3333Ti0.1667P3O12,17.018145,0.6277713548524584
Li0.1429Cr0.0924Fe0.0000Ti0.0084P0.1513O0.6050,Li2.8333Cr1.8333Fe0.0Ti0.1667P3O12,17.431204,
Li0.1500Cr0.0000Fe0.1000Ti0.0000P0.1500O0.6000,Li3.0Cr0.0Fe2.0Ti0.0P3O12,13.206304,
Li0.1500Cr0.0083Fe0.0917Ti0.0000P0.1500O0.6000,Li3.0Cr0.1667Fe1.8333Ti0.0P3O12,13.332053,
Li0.1500Cr0.0167Fe0.0833Ti0.0000P0.1500O0.6000,Li3.0Cr0.3333Fe1.6667Ti0.0P3O12,13.332053,
Li0.1500Cr0.0250Fe0.0750Ti0.0000P0.1500O0.6000,Li3.0Cr0.5Fe1.5Ti0.0P3O12,13.332053,
Li0.1500Cr0.0333Fe0.0667Ti0.0000P0.1500O0.6000,Li3.0Cr0.6667Fe1.3333Ti0.0P3O12,13.332053,
Li0.1500Cr0.0417Fe0.0583Ti0.0000P0.1500O0.6000,Li3.0Cr0.8333Fe1.1667Ti0.0P3O12,13.047876,
Li0.1500Cr0.0500Fe0.0500Ti0.0000P0.1500O0.6000,Li3.0Cr1.0Fe1.0Ti0.0P3O12,12.980094,
Li0.1500Cr0.0583Fe0.0417Ti0.0000P0.1500O0.6000,Li3.0Cr1.1667Fe0.8333Ti0.0P3O12,12.980094,
Li0.1500Cr0.0667Fe0.0333Ti0.0000P0.1500O0.6000,Li3.0Cr1.3333Fe0.6667Ti0.0P3O12,15.624984,
Li0.1500Cr0.0750Fe0.0250Ti0.0000P0.1500O0.6000,Li3.0Cr1.5Fe0.5Ti0.0P3O12,15.624984,
Li0.1500Cr0.0833Fe0.0167Ti0.0000P0.1500O0.6000,Li3.0Cr1.6667Fe0.3333Ti0.0P3O12,17.903326,
Li0.1500Cr0.0917Fe0.0083Ti0.0000P0.1500O0.6000,Li3.0Cr1.8333Fe0.1667Ti0.0P3O12,17.903326,
Li0.1500Cr0.1000Fe0.0000Ti0.0000P0.1500O0.6000,Li3.0Cr2.0Fe0.0Ti0.0P3O12,17.903326,
Li0.0556Cr0.0000Ga0.0000Ti0.1111P0.1667O0.6667,Li1.0Cr0.0Ga0.0Ti2.0P3O12,7.7087817,
Li0.0642Cr0.0000Ga0.0092Ti0.1009P0.1651O0.6605,Li1.1667Cr0.0Ga0.1667Ti1.8333P3O12,7.7087817,
Li0.0642Cr0.0092Ga0.0000Ti0.1009P0.1651O0.6605,Li1.1667Cr0.1667Ga0.0Ti1.8333P3O12,7.7087817,
Li0.0727Cr0.0000Ga0.0182Ti0.0909P0.1636O0.6545,Li1.3333Cr0.0Ga0.3333Ti1.6667P3O12,7.678768,
Li0.0727Cr0.0182Ga0.0000Ti0.0909P0.1636O0.6545,Li1.3333Cr0.3333Ga0.0Ti1.6667P3O12,7.7087817,
Li0.0811Cr0.0000Ga0.0270Ti0.0811P0.1622O0.6486,Li1.5Cr0.0Ga0.5Ti1.5P3O12,7.7207913,
Li0.0811Cr0.0090Ga0.0180Ti0.0811P0.1622O0.6486,Li1.5Cr0.1667Ga0.3333Ti1.5P3O12,7.7207913,1.080076848366342
Li0.0811Cr0.0180Ga0.0090Ti0.0811P0.1622O0.6486,Li1.5Cr0.3333Ga0.1667Ti1.5P3O12,7.750805,2.124362106258664
Li0.0811Cr0.0270Ga0.0000Ti0.0811P0.1622O0.6486,Li1.5Cr0.5Ga0.0Ti1.5P3O12,7.750805,
Li0.0893Cr0.0000Ga0.0357Ti0.0714P0.1607O0.6429,Li1.6667Cr0.0Ga0.6667Ti1.3333P3O12,8.099321,
Li0.0893Cr0.0089Ga0.0268Ti0.0714P0.1607O0.6429,Li1.6667Cr0.1667Ga0.5Ti1.3333P3O12,8.099321,1.0279645760347318
Li0.0893Cr0.0268Ga0.0089Ti0.0714P0.1607O0.6429,Li1.6667Cr0.5Ga0.1667Ti1.3333P3O12,8.129335,2.9796807209293066
Li0.0893Cr0.0357Ga0.0000Ti0.0714P0.1607O0.6429,Li1.6667Cr0.6667Ga0.0Ti1.3333P3O12,8.129335,
Li0.0973Cr0.0000Ga0.0442Ti0.0619P0.1593O0.6372,Li1.8333Cr0.0Ga0.8333Ti1.1667P3O12,8.099321,
Li0.0973Cr0.0177Ga0.0265Ti0.0619P0.1593O0.6372,Li1.8333Cr0.3333Ga0.5Ti1.1667P3O12,8.099321,1.923936150286773
Li0.0973Cr0.0265Ga0.0177Ti0.0619P0.1593O0.6372,Li1.8333Cr0.5Ga0.3333Ti1.1667P3O12,8.099321,2.832768875176042
Li0.0973Cr0.0442Ga0.0000Ti0.0619P0.1593O0.6372,Li1.8333Cr0.8333Ga0.0Ti1.1667P3O12,7.845156,
Li0.1053Cr0.0000Ga0.0526Ti0.0526P0.1579O0.6316,Li2.0Cr0.0Ga1.0Ti1.0P3O12,8.099321,
Li0.1053Cr0.0088Ga0.0439Ti0.0526P0.1579O0.6316,Li2.0Cr0.1667Ga0.8333Ti1.0P3O12,8.099321,0.9781953342210484
Li0.1053Cr0.0175Ga0.0351Ti0.0526P0.1579O0.6316,Li2.0Cr0.3333Ga0.6667Ti1.0P3O12,8.099321,1.88429798627907
Li0.1053Cr0.0263Ga0.0263Ti0.0526P0.1579O0.6316,Li2.0Cr0.5Ga0.5Ti1.0P3O12,8.099321,2.751838098144812
Li0.1053Cr0.0351Ga0.0175Ti0.0526P0.1579O0.6316,Li2.0Cr0.6667Ga0.3333Ti1.0P3O12,8.099321,3.55981056790275
Li0.1053Cr0.0439Ga0.0088Ti0.0526P0.1579O0.6316,Li2.0Cr0.8333Ga0.1667Ti1.0P3O12,7.845156,4.348185345293948
Li0.1053Cr0.0526Ga0.0000Ti0.0526P0.1579O0.6316,Li2.0Cr1.0Ga0.0Ti1.0P3O12,7.845156,
Li0.1130Cr0.0000Ga0.0609Ti0.0435P0.1565O0.6261,Li2.1667Cr0.0Ga1.1667Ti0.8333P3O12,6.7658024,
Li0.1130Cr0.0087Ga0.0522Ti0.0435P0.1565O0.6261,Li2.1667Cr0.1667Ga1.0Ti0.8333P3O12,8.099321,0.035597284864268657
Li0.1130Cr0.0261Ga0.0348Ti0.0435P0.1565O0.6261,Li2.1667Cr0.5Ga0.6667Ti0.8333P3O12,8.099321,0.9171950664200587
Li0.1130Cr0.0348Ga0.0261Ti0.0435P0.1565O0.6261,Li2.1667Cr0.6667Ga0.5Ti0.8333P3O12,8.099321,1.2596295867798253
Li0.1130Cr0.0522Ga0.0087Ti0.0435P0.1565O0.6261,Li2.1667Cr1.0Ga0.1667Ti0.8333P3O12,7.845156,0.10369294664268018
Li0.1130Cr0.0609Ga0.0000Ti0.0435P0.1565O0.6261,Li2.1667Cr1.1667Ga0.0Ti0.8333P3O12,13.286617,
Li0.1207Cr0.0000Ga0.0690Ti0.0345P0.1552O0.6207,Li2.3333Cr0.0Ga1.3333Ti0.6667P3O12,6.7658024,
Li0.1207Cr0.0172Ga0.0517Ti0.0345P0.1552O0.6207,Li2.3333Cr0.3333Ga1.0Ti0.6667P3O12,8.099321,0.0730423109206346
Li0.1207Cr0.0259Ga0.0431Ti0.0345P0.1552O0.6207,Li2.3333Cr0.5Ga0.8333Ti0.6667P3O12,8.099321,0.8261813669270013
Li0.1207Cr0.0431Ga0.0259Ti0.0345P0.1552O0.6207,Li2.3333Cr0.8333Ga0.5Ti0.6667P3O12,7.8151426,1.4179850367824205
Li0.1207Cr0.0517Ga0.0172Ti0.0345P0.1552O0.6207,Li2.3333Cr1.0Ga0.3333Ti0.6667P3O12,7.8151426,0.12220341428914643
Li0.1207Cr0.0690Ga0.0000Ti0.0345P0.1552O0.6207,Li2.3333Cr1.3333Ga0.0Ti0.6667P3O12,13.286617,
Li0.1282Cr0.0000Ga0.0769Ti0.0256P0.1538O0.6154,Li2.5Cr0.0Ga1.5Ti0.5P3O12,6.7658024,
Li0.1282Cr0.0085Ga0.0684Ti0.0256P0.1538O0.6154,Li2.5Cr0.1667Ga1.3333Ti0.5P3O12,6.7658024,0.042627951403146055
Li0.1282Cr0.0171Ga0.0598Ti0.0256P0.1538O0.6154,Li2.5Cr0.3333Ga1.1667Ti0.5P3O12,6.7658024,0.07858350275400648
Li0.1282Cr0.0256Ga0.0513Ti0.0256P0.1538O0.6154,Li2.5Cr0.5Ga1.0Ti0.5P3O12,8.099321,0.10741542620808202
Li0.1282Cr0.0342Ga0.0427Ti0.0256P0.1538O0.6154,Li2.5Cr0.6667Ga0.8333Ti0.5P3O12,8.099321,0.9720007655998543
Li0.1282Cr0.0427Ga0.0342Ti0.0256P0.1538O0.6154,Li2.5Cr0.8333Ga0.6667Ti0.5P3O12,7.8151426,1.2266981943200543
Li0.1282Cr0.0513Ga0.0256Ti0.0256P0.1538O0.6154,Li2.5Cr1.0Ga0.5Ti0.5P3O12,7.8151426,0.14667072914520132
Li0.1282Cr0.0598Ga0.0171Ti0.0256P0.1538O0.6154,Li2.5Cr1.1667Ga0.3333Ti0.5P3O12,7.8151426,0.13097012469477398
Li0.1282Cr0.0684Ga0.0085Ti0.0256P0.1538O0.6154,Li2.5Cr1.3333Ga0.1667Ti0.5P3O12,13.286617,0.1134774860536285
Li0.1282Cr0.0769Ga0.0000Ti0.0256P0.1538O0.6154,Li2.5Cr1.5Ga0.0Ti0.5P3O12,13.286617,
Li0.1356Cr0.0000Ga0.0847Ti0.0169P0.1525O0.6102,Li2.6667Cr0.0Ga1.6667Ti0.3333P3O12,6.7658024,
Li0.1356Cr0.0085Ga0.0763Ti0.0169P0.1525O0.6102,Li2.6667Cr0.1667Ga1.5Ti0.3333P3O12,6.7658024,0.04946454015135983
Li0.1356Cr0.0254Ga0.0593Ti0.0169P0.1525O0.6102,Li2.6667Cr0.5Ga1.1667Ti0.3333P3O12,6.7658024,0.11551383195520089
Li0.1356Cr0.0339Ga0.0508Ti0.0169P0.1525O0.6102,Li2.6667Cr0.6667Ga1.0Ti0.3333P3O12,8.099321,0.13803702000234172
Li0.1356Cr0.0508Ga0.0339Ti0.0169P0.1525O0.6102,Li2.6667Cr1.0Ga0.6667Ti0.3333P3O12,7.8151426,0.18912923721928732
Li0.1356Cr0.0593Ga0.0254Ti0.0169P0.1525O0.6102,Li2.6667Cr1.1667Ga0.5Ti0.3333P3O12,7.8151426,0.17429123570058624
Li0.1356Cr0.0763Ga0.0085Ti0.0169P0.1525O0.6102,Li2.6667Cr1.5Ga0.1667Ti0.3333P3O12,13.286617,0.130057816051134
Li0.1356Cr0.0847Ga0.0000Ti0.0169P0.1525O0.6102,Li2.6667Cr1.6667Ga0.0Ti0.3333P3O12,13.699678,
Li0.1429Cr0.0000Ga0.0924Ti0.0084P0.1513O0.6050,Li2.8333Cr0.0Ga1.8333Ti0.1667P3O12,10.497339,
Li0.1429Cr0.0168Ga0.0756Ti0.0084P0.1513O0.6050,Li2.8333Cr0.3333Ga1.5Ti0.1667P3O12,10.497339,0.09973245667561385
Li0.1429Cr0.0252Ga0.0672Ti0.0084P0.1513O0.6050,Li2.8333Cr0.5Ga1.3333Ti0.1667P3O12,10.497339,0.1300423236359967
Li0.1429Cr0.0420Ga0.0504Ti0.0084P0.1513O0.6050,Li2.8333Cr0.8333Ga1.0Ti0.1667P3O12,11.546678,0.1773525638027937
Li0.1429Cr0.0504Ga0.0420Ti0.0084P0.1513O0.6050,Li2.8333Cr1.0Ga0.8333Ti0.1667P3O12,11.546678,0.26955498820294105
Li0.1429Cr0.0672Ga0.0252Ti0.0084P0.1513O0.6050,Li2.8333Cr1.3333Ga0.5Ti0.1667P3O12,16.98813,0.23516436243190683
Li0.1429Cr0.0756Ga0.0168Ti0.0084P0.1513O0.6050,Li2.8333Cr1.5Ga0.3333Ti0.1667P3O12,16.98813,0.2100241332056963
Li0.1429Cr0.0924Ga0.0000Ti0.0084P0.1513O0.6050,Li2.8333Cr1.8333Ga0.0Ti0.1667P3O12,17.431204,
Li0.1500Cr0.0000Ga0.1000Ti0.0000P0.1500O0.6000,Li3.0Cr0.0Ga2.0Ti0.0P3O12,13.755412,
Li0.1500Cr0.0083Ga0.0917Ti0.0000P0.1500O0.6000,Li3.0Cr0.1667Ga1.8333Ti0.0P3O12,13.843395,
Li0.1500Cr0.0167Ga0.0833Ti0.0000P0.1500O0.6000,Li3.0Cr0.3333Ga1.6667Ti0.0P3O12,13.843395,
Li0.1500Cr0.0250Ga0.0750Ti0.0000P0.1500O0.6000,Li3.0Cr0.5Ga1.5Ti0.0P3O12,13.843395,
Li0.1500Cr0.0333Ga0.0667Ti0.0000P0.1500O0.6000,Li3.0Cr0.6667Ga1.3333Ti0.0P3O12,13.843395,
Li0.1500Cr0.0417Ga0.0583Ti0.0000P0.1500O0.6000,Li3.0Cr0.8333Ga1.1667Ti0.0P3O12,14.892734,
Li0.1500Cr0.0500Ga0.0500Ti0.0000P0.1500O0.6000,Li3.0Cr1.0Ga1.0Ti0.0P3O12,14.892734,
Li0.1500Cr0.0583Ga0.0417Ti0.0000P0.1500O0.6000,Li3.0Cr1.1667Ga0.8333Ti0.0P3O12,14.892734,
Li0.1500Cr0.0667Ga0.0333Ti0.0000P0.1500O0.6000,Li3.0Cr1.3333Ga0.6667Ti0.0P3O12,17.460253,
Li0.1500Cr0.0750Ga0.0250Ti0.0000P0.1500O0.6000,Li3.0Cr1.5Ga0.5Ti0.0P3O12,17.460253,
Li0.1500Cr0.0833Ga0.0167Ti0.0000P0.1500O0.6000,Li3.0Cr1.6667Ga0.3333Ti0.0P3O12,17.873312,
Li0.1500Cr0.0917Ga0.0083Ti0.0000P0.1500O0.6000,Li3.0Cr1.8333Ga0.1667Ti0.0P3O12,17.903326,
Li0.1500Cr0.1000Ga0.0000Ti0.0000P0.1500O0.6000,Li3.0Cr2.0Ga0.0Ti0.0P3O12,17.903326,
Li0.0556Cr0.0000In0.0000Ti0.1111P0.1667O0.6667,Li1.0Cr0.0In0.0Ti2.0P3O12,7.7087817,
Li0.0642Cr0.0000In0.0092Ti0.1009P0.1651O0.6605,Li1.1667Cr0.0In0.1667Ti1.8333P3O12,7.7087817,
Li0.0642Cr0.0092In0.0000Ti0.1009P0.1651O0.6605,Li1.1667Cr0.1667In0.0Ti1.8333P3O12,7.7087817,
Li0.0727Cr0.0000In0.0182Ti0.0909P0.1636O0.6545,Li1.3333Cr0.0In0.3333Ti1.6667P3O12,8.017441,
Li0.0727Cr0.0182In0.0000Ti0.0909P0.1636O0.6545,Li1.3333Cr0.3333In0.0Ti1.6667P3O12,7.7087817,
Li0.0811Cr0.0000In0.0270Ti0.0811P0.1622O0.6486,Li1.5Cr0.0In0.5Ti1.5P3O12,8.31198,
Li0.0811Cr0.0090In0.0180Ti0.0811P0.1622O0.6486,Li1.5Cr0.1667In0.3333Ti1.5P3O12,8.036197,0.3921030676035634
Li0.0811Cr0.0180In0.0090Ti0.0811P0.1622O0.6486,Li1.5Cr0.3333In0.1667Ti1.5P3O12,7.750805,0.9162650306767609
Li0.0811Cr0.0270In0.0000Ti0.0811P0.1622O0.6486,Li1.5Cr0.5In0.0Ti1.5P3O12,7.750805,
Li0.0893Cr0.0000In0.0357Ti0.0714P0.1607O0.6429,Li1.6667Cr0.0In0.6667Ti1.3333P3O12,8.690509,
Li0.0893Cr0.0089In0.0268Ti0.0714P0.1607O0.6429,Li1.6667Cr0.1667In0.5Ti1.3333P3O12,8.690509,0.3641211603217743
Li0.0893Cr0.0268In0.0089Ti0.0714P0.1607O0.6429,Li1.6667Cr0.5In0.1667Ti1.3333P3O12,8.129335,1.3509456710335612
Li0.0893Cr0.0357In0.0000Ti0.0714P0.1607O0.6429,Li1.6667Cr0.6667In0.0Ti1.3333P3O12,8.129335,
Li0.0973Cr0.0000In0.0442Ti0.0619P0.1593O0.6372,Li1.8333Cr0.0In0.8333Ti1.1667P3O12,8.690509,
Li0.0973Cr0.0177In0.0265Ti0.0619P0.1593O0.6372,Li1.8333Cr0.3333In0.5Ti1.1667P3O12,8.690509,0.714180791016099
Li0.0973Cr0.0265In0.0177Ti0.0619P0.1593O0.6372,Li1.8333Cr0.5In0.3333Ti1.1667P3O12,8.414724,1.1674533158294251
Li0.0973Cr0.0442In0.0000Ti0.0619P0.1593O0.6372,Li1.8333Cr0.8333In0.0Ti1.1667P3O12,7.845156,
Li0.1053Cr0.0000In0.0526Ti0.0526P0.1579O0.6316,Li2.0Cr0.0In1.0Ti1.0P3O12,8.690509,
Li0.1053Cr0.0088In0.0439Ti0.0526P0.1579O0.6316,Li2.0Cr0.1667In0.8333Ti1.0P3O12,8.690509,0.34066865980644845
Li0.1053Cr0.0175In0.0351Ti0.0526P0.1579O0.6316,Li2.0Cr0.3333In0.6667Ti1.0P3O12,8.690509,0.6915866654367587
Li0.1053Cr0.0263In0.0263Ti0.0526P0.1579O0.6316,Li2.0Cr0.5In0.5Ti1.0P3O12,8.690509,1.0851846099895972
Li0.1053Cr0.0351In0.0175Ti0.0526P0.1579O0.6316,Li2.0Cr0.6667In0.3333Ti1.0P3O12,8.403259,1.5291510525680523
Li0.1053Cr0.0439In0.0088Ti0.0526P0.1579O0.6316,Li2.0Cr0.8333In0.1667Ti1.0P3O12,7.845156,2.124947633940384
Li0.1053Cr0.0526In0.0000Ti0.0526P0.1579O0.6316,Li2.0Cr1.0In0.0Ti1.0P3O12,7.845156,
Li0.1130Cr0.0000In0.0609Ti0.0435P0.1565O0.6261,Li2.1667Cr0.0In1.1667Ti0.8333P3O12,8.690509,
Li0.1130Cr0.0087In0.0522Ti0.0435P0.1565O0.6261,Li2.1667Cr0.1667In1.0Ti0.8333P3O12,8.690509,0.0057412001298139965
Li0.1130Cr0.0261In0.0348Ti0.0435P0.1565O0.6261,Li2.1667Cr0.5In0.6667Ti0.8333P3O12,8.690509,0.27422287263492157
Li0.1130Cr0.0348In0.0261Ti0.0435P0.1565O0.6261,Li2.1667Cr0.6667In0.5Ti0.8333P3O12,8.690509,0.3813877828491291
Li0.1130Cr0.0522In0.0087Ti0.0435P0.1565O0.6261,Li2.1667Cr1.0In0.1667Ti0.8333P3O12,7.845156,0.05250383204712729
Li0.1130Cr0.0609In0.0000Ti0.0435P0.1565O0.6261,Li2.1667Cr1.1667In0.0Ti0.8333P3O12,13.286617,
Li0.1207Cr0.0000In0.0690Ti0.0345P0.1552O0.6207,Li2.3333Cr0.0In1.3333Ti0.6667P3O12,8.690509,
Li0.1207Cr0.0172In0.0517Ti0.0345P0.1552O0.6207,Li2.3333Cr0.3333In1.0Ti0.6667P3O12,8.690509,0.01296563889698548