formula,original_formula,thermal_expansion,li ion conductivity
Li0.1429B0.0168In0.0756Ti0.0084P0.1513O0.6050,Li2.8333B0.3333In1.5Ti0.1667P3O12,12.422039,1.6686953740601222
Li0.1429B0.0252In0.0672Ti0.0084P0.1513O0.6050,Li2.8333B0.5In1.3333Ti0.1667P3O12,12.422039,2.1762568043214188
Li0.1429B0.0420In0.0504Ti0.0084P0.1513O0.6050,Li2.8333B0.8333In1.0Ti0.1667P3O12,12.422039,2.918437223929174
Li0.1429B0.0504In0.0420Ti0.0084P0.1513O0.6050,Li2.8333B1.0In0.8333Ti0.1667P3O12,12.422039,0.08995755975918841
Li0.1429B0.0672In0.0252Ti0.0084P0.1513O0.6050,Li2.8333B1.3333In0.5Ti0.1667P3O12,12.422039,0.08175183695644048
Li0.1429B0.0756In0.0168Ti0.0084P0.1513O0.6050,Li2.8333B1.5In0.3333Ti0.1667P3O12,12.13479,0.07647502893924639
Li0.1429B0.0924In0.0000Ti0.0084P0.1513O0.6050,Li2.8333B1.8333In0.0Ti0.1667P3O12,11.860868,
Li0.1500B0.0000In0.1000Ti0.0000P0.1500O0.6000,Li3.0B0.0In2.0Ti0.0P3O12,12.877124,
Li0.1500B0.0083In0.0917Ti0.0000P0.1500O0.6000,Li3.0B0.1667In1.8333Ti0.0P3O12,12.877124,
Li0.1500B0.0167In0.0833Ti0.0000P0.1500O0.6000,Li3.0B0.3333In1.6667Ti0.0P3O12,12.877124,
Li0.1500B0.0250In0.0750Ti0.0000P0.1500O0.6000,Li3.0B0.5In1.5Ti0.0P3O12,15.768095,
Li0.1500B0.0333In0.0667Ti0.0000P0.1500O0.6000,Li3.0B0.6667In1.3333Ti0.0P3O12,15.768095,
Li0.1500B0.0417In0.0583Ti0.0000P0.1500O0.6000,Li3.0B0.8333In1.1667Ti0.0P3O12,15.768095,
Li0.1500B0.0500In0.0500Ti0.0000P0.1500O0.6000,Li3.0B1.0In1.0Ti0.0P3O12,15.768095,
Li0.1500B0.0583In0.0417Ti0.0000P0.1500O0.6000,Li3.0B1.1667In0.8333Ti0.0P3O12,15.768095,
Li0.1500B0.0667In0.0333Ti0.0000P0.1500O0.6000,Li3.0B1.3333In0.6667Ti0.0P3O12,15.768095,
Li0.1500B0.0750In0.0250Ti0.0000P0.1500O0.6000,Li3.0B1.5In0.5Ti0.0P3O12,15.768095,
Li0.1500B0.0833In0.0167Ti0.0000P0.1500O0.6000,Li3.0B1.6667In0.3333Ti0.0P3O12,15.480846,
Li0.1500B0.0917In0.0083Ti0.0000P0.1500O0.6000,Li3.0B1.8333In0.1667Ti0.0P3O12,15.206924,
Li0.1500B0.1000In0.0000Ti0.0000P0.1500O0.6000,Li3.0B2.0In0.0Ti0.0P3O12,15.206924,
Li0.0556B0.0000Mn0.0000Ti0.1111P0.1667O0.6667,Li1.0B0.0Mn0.0Ti2.0P3O12,7.7087817,
Li0.0642B0.0000Mn0.0092Ti0.1009P0.1651O0.6605,Li1.1667B0.0Mn0.1667Ti1.8333P3O12,7.7087817,
Li0.0642B0.0092Mn0.0000Ti0.1009P0.1651O0.6605,Li1.1667B0.1667Mn0.0Ti1.8333P3O12,7.7087817,
Li0.0727B0.0000Mn0.0182Ti0.0909P0.1636O0.6545,Li1.3333B0.0Mn0.3333Ti1.6667P3O12,7.7087817,
Li0.0727B0.0182Mn0.0000Ti0.0909P0.1636O0.6545,Li1.3333B0.3333Mn0.0Ti1.6667P3O12,7.7087817,
Li0.0811B0.0000Mn0.0270Ti0.0811P0.1622O0.6486,Li1.5B0.0Mn0.5Ti1.5P3O12,7.750805,
Li0.0811B0.0090Mn0.0180Ti0.0811P0.1622O0.6486,Li1.5B0.1667Mn0.3333Ti1.5P3O12,7.750805,4.862142242214957
Li0.1053B0.0263Fe0.0263Ti0.0526P0.1579O0.6316,Li2.0B0.5Fe0.5Ti1.0P3O12,7.0501,8.692569826274916
Li0.0811B0.0270Mn0.0000Ti0.0811P0.1622O0.6486,Li1.5B0.5Mn0.0Ti1.5P3O12,7.750805,
Li0.0893B0.0000Mn0.0357Ti0.0714P0.1607O0.6429,Li1.6667B0.0Mn0.6667Ti1.3333P3O12,8.129335,
Li0.0893B0.0089Mn0.0268Ti0.0714P0.1607O0.6429,Li1.6667B0.1667Mn0.5Ti1.3333P3O12,8.129335,4.186861916374266
Li0.1053B0.0263Mn0.0263Ti0.0526P0.1579O0.6316,Li2.0B0.5Mn0.5Ti1.0P3O12,8.129335,8.363417649959562
Li0.0893B0.0357Mn0.0000Ti0.0714P0.1607O0.6429,Li1.6667B0.6667Mn0.0Ti1.3333P3O12,8.129335,
Li0.0973B0.0000Mn0.0442Ti0.0619P0.1593O0.6372,Li1.8333B0.0Mn0.8333Ti1.1667P3O12,7.1790795,
Li0.0973B0.0177Mn0.0265Ti0.0619P0.1593O0.6372,Li1.8333B0.3333Mn0.5Ti1.1667P3O12,8.129335,6.662339458118679
Li0.1356B0.0339Mn0.0508Ti0.0169P0.1525O0.6102,Li2.6667B0.6667Mn1.0Ti0.3333P3O12,7.5443654,8.27604034218162
Li0.0973B0.0442Mn0.0000Ti0.0619P0.1593O0.6372,Li1.8333B0.8333Mn0.0Ti1.1667P3O12,8.129335,
Li0.1053B0.0000Mn0.0526Ti0.0526P0.1579O0.6316,Li2.0B0.0Mn1.0Ti1.0P3O12,7.5443654,
Li0.1053B0.0088Mn0.0439Ti0.0526P0.1579O0.6316,Li2.0B0.1667Mn0.8333Ti1.0P3O12,7.1790795,3.5159595742052954
Li0.1053B0.0175Mn0.0351Ti0.0526P0.1579O0.6316,Li2.0B0.3333Mn0.6667Ti1.0P3O12,8.129335,5.971290652845021
Li0.1356Mn0.0508B0.0339Ti0.0169P0.1525O0.6102,Li2.6667Mn1.0B0.6667Ti0.3333P3O12,7.5443654,8.27604034218162
Li0.1429B0.0252Co0.0672Ti0.0084P0.1513O0.6050,Li2.8333B0.5Co1.3333Ti0.1667P3O12,11.87875,8.267816383564961
Li0.1429Co0.0672B0.0252Ti0.0084P0.1513O0.6050,Li2.8333Co1.3333B0.5Ti0.1667P3O12,11.87875,8.267816383564961
Li0.1053B0.0526Mn0.0000Ti0.0526P0.1579O0.6316,Li2.0B1.0Mn0.0Ti1.0P3O12,8.129335,
Li0.1130B0.0000Mn0.0609Ti0.0435P0.1565O0.6261,Li2.1667B0.0Mn1.1667Ti0.8333P3O12,7.5443654,
Li0.1130B0.0087Mn0.0522Ti0.0435P0.1565O0.6261,Li2.1667B0.1667Mn1.0Ti0.8333P3O12,7.5443654,2.783559967836234
Li0.1130B0.0261Mn0.0348Ti0.0435P0.1565O0.6261,Li2.1667B0.5Mn0.6667Ti0.8333P3O12,8.129335,0.04882599305330155
Li0.1130B0.0348Mn0.0261Ti0.0435P0.1565O0.6261,Li2.1667B0.6667Mn0.5Ti0.8333P3O12,8.129335,0.06906070603485037
Li0.1130B0.0522Mn0.0087Ti0.0435P0.1565O0.6261,Li2.1667B1.0Mn0.1667Ti0.8333P3O12,8.129335,0.27682462100247784
Li0.1130B0.0609Mn0.0000Ti0.0435P0.1565O0.6261,Li2.1667B1.1667Mn0.0Ti0.8333P3O12,8.129335,
Li0.1207B0.0000Mn0.0690Ti0.0345P0.1552O0.6207,Li2.3333B0.0Mn1.3333Ti0.6667P3O12,7.5443654,
Li0.1207B0.0172Mn0.0517Ti0.0345P0.1552O0.6207,Li2.3333B0.3333Mn1.0Ti0.6667P3O12,7.5443654,4.615349533932189
Li0.1207B0.0259Mn0.0431Ti0.0345P0.1552O0.6207,Li2.3333B0.5Mn0.8333Ti0.6667P3O12,7.1790795,0.03697427814942034
Li0.1207B0.0431Mn0.0259Ti0.0345P0.1552O0.6207,Li2.3333B0.8333Mn0.5Ti0.6667P3O12,8.129335,0.0692216439224701
Li0.1207B0.0517Mn0.0172Ti0.0345P0.1552O0.6207,Li2.3333B1.0Mn0.3333Ti0.6667P3O12,8.129335,0.4631260863024323
Li0.1207B0.0690Mn0.0000Ti0.0345P0.1552O0.6207,Li2.3333B1.3333Mn0.0Ti0.6667P3O12,8.129335,
Li0.1282B0.0000Mn0.0769Ti0.0256P0.1538O0.6154,Li2.5B0.0Mn1.5Ti0.5P3O12,7.5443654,
Li0.1282B0.0085Mn0.0684Ti0.0256P0.1538O0.6154,Li2.5B0.1667Mn1.3333Ti0.5P3O12,7.5443654,3.4312311979044074
Li0.1282B0.0171Mn0.0598Ti0.0256P0.1538O0.6154,Li2.5B0.3333Mn1.1667Ti0.5P3O12,7.5443654,5.054132927431889
Li0.1282B0.0256Mn0.0513Ti0.0256P0.1538O0.6154,Li2.5B0.5Mn1.0Ti0.5P3O12,7.5443654,6.154464798370757
Li0.1282B0.0342Mn0.0427Ti0.0256P0.1538O0.6154,Li2.5B0.6667Mn0.8333Ti0.5P3O12,7.1790795,0.03753378474466006
Li0.1282B0.0427Mn0.0342Ti0.0256P0.1538O0.6154,Li2.5B0.8333Mn0.6667Ti0.5P3O12,8.129335,0.04990712543871057
Li0.1282B0.0513Mn0.0256Ti0.0256P0.1538O0.6154,Li2.5B1.0Mn0.5Ti0.5P3O12,8.129335,0.6259347385623726
Li0.1282B0.0598Mn0.0171Ti0.0256P0.1538O0.6154,Li2.5B1.1667Mn0.3333Ti0.5P3O12,8.129335,0.5171123381074612
Li0.1282B0.0684Mn0.0085Ti0.0256P0.1538O0.6154,Li2.5B1.3333Mn0.1667Ti0.5P3O12,8.129335,0.35290454450944453
Li0.1282B0.0769Mn0.0000Ti0.0256P0.1538O0.6154,Li2.5B1.5Mn0.0Ti0.5P3O12,8.129335,
Li0.1356B0.0000Mn0.0847Ti0.0169P0.1525O0.6102,Li2.6667B0.0Mn1.6667Ti0.3333P3O12,7.480082,
Li0.1356B0.0085Mn0.0763Ti0.0169P0.1525O0.6102,Li2.6667B0.1667Mn1.5Ti0.3333P3O12,7.5443654,4.147527440058777
Li0.1429B0.0252Ni0.0672Ti0.0084P0.1513O0.6050,Li2.8333B0.5Ni1.3333Ti0.1667P3O12,15.393118,8.190385229455355
Li0.1429Ni0.0672B0.0252Ti0.0084P0.1513O0.6050,Li2.8333Ni1.3333B0.5Ti0.1667P3O12,15.393118,8.190385229455355
Li0.1356B0.0508Mn0.0339Ti0.0169P0.1525O0.6102,Li2.6667B1.0Mn0.6667Ti0.3333P3O12,8.129335,0.7959500603399081
Li0.1356B0.0593Mn0.0254Ti0.0169P0.1525O0.6102,Li2.6667B1.1667Mn0.5Ti0.3333P3O12,8.129335,0.708573573281157
Li0.1356B0.0763Mn0.0085Ti0.0169P0.1525O0.6102,Li2.6667B1.5Mn0.1667Ti0.3333P3O12,8.129335,0.4145453700639683
Li0.1356B0.0847Mn0.0000Ti0.0169P0.1525O0.6102,Li2.6667B1.6667Mn0.0Ti0.3333P3O12,8.129335,
Li0.1429B0.0000Mn0.0924Ti0.0084P0.1513O0.6050,Li2.8333B0.0Mn1.8333Ti0.1667P3O12,9.358569,
Li0.0973B0.0265Sc0.0177Ti0.0619P0.1593O0.6372,Li1.8333B0.5Sc0.3333Ti1.1667P3O12,12.335771,8.188802673563698
Li0.0811B0.0180Sc0.0090Ti0.0811P0.1622O0.6486,Li1.5B0.3333Sc0.1667Ti1.5P3O12,9.027468,8.106916073022084
Li0.1429B0.0252Cr0.0672Ti0.0084P0.1513O0.6050,Li2.8333B0.5Cr1.3333Ti0.1667P3O12,17.018145,8.08121947914488
Li0.1429B0.0504Mn0.0420Ti0.0084P0.1513O0.6050,Li2.8333B1.0Mn0.8333Ti0.1667P3O12,9.057569,1.0358421949652066
Li0.1429B0.0672Mn0.0252Ti0.0084P0.1513O0.6050,Li2.8333B1.3333Mn0.5Ti0.1667P3O12,11.860868,0.8681415191653072
Li0.1429B0.0756Mn0.0168Ti0.0084P0.1513O0.6050,Li2.8333B1.5Mn0.3333Ti0.1667P3O12,11.860868,0.7370148271228865
Li0.1429B0.0924Mn0.0000Ti0.0084P0.1513O0.6050,Li2.8333B1.8333Mn0.0Ti0.1667P3O12,11.860868,
Li0.1500B0.0000Mn0.1000Ti0.0000P0.1500O0.6000,Li3.0B0.0Mn2.0Ti0.0P3O12,12.704627,
Li0.1500B0.0083Mn0.0917Ti0.0000P0.1500O0.6000,Li3.0B0.1667Mn1.8333Ti0.0P3O12,12.704627,
Li0.1500B0.0167Mn0.0833Ti0.0000P0.1500O0.6000,Li3.0B0.3333Mn1.6667Ti0.0P3O12,12.704627,
Li0.1500B0.0250Mn0.0750Ti0.0000P0.1500O0.6000,Li3.0B0.5Mn1.5Ti0.0P3O12,12.76891,
Li0.1500B0.0333Mn0.0667Ti0.0000P0.1500O0.6000,Li3.0B0.6667Mn1.3333Ti0.0P3O12,12.76891,
Li0.1500B0.0417Mn0.0583Ti0.0000P0.1500O0.6000,Li3.0B0.8333Mn1.1667Ti0.0P3O12,12.76891,
Li0.1500B0.0500Mn0.0500Ti0.0000P0.1500O0.6000,Li3.0B1.0Mn1.0Ti0.0P3O12,12.76891,
Li0.1500B0.0583Mn0.0417Ti0.0000P0.1500O0.6000,Li3.0B1.1667Mn0.8333Ti0.0P3O12,12.4036255,
Li0.1500B0.0667Mn0.0333Ti0.0000P0.1500O0.6000,Li3.0B1.3333Mn0.6667Ti0.0P3O12,15.206924,
Li0.1500B0.0750Mn0.0250Ti0.0000P0.1500O0.6000,Li3.0B1.5Mn0.5Ti0.0P3O12,15.206924,
Li0.1500B0.0833Mn0.0167Ti0.0000P0.1500O0.6000,Li3.0B1.6667Mn0.3333Ti0.0P3O12,15.206924,
Li0.1500B0.0917Mn0.0083Ti0.0000P0.1500O0.6000,Li3.0B1.8333Mn0.1667Ti0.0P3O12,15.206924,
Li0.1500B0.1000Mn0.0000Ti0.0000P0.1500O0.6000,Li3.0B2.0Mn0.0Ti0.0P3O12,15.206924,
Li0.0556B0.0000Ni0.0000Ti0.1111P0.1667O0.6667,Li1.0B0.0Ni0.0Ti2.0P3O12,7.7087817,
Li0.0642B0.0000Ni0.0092Ti0.1009P0.1651O0.6605,Li1.1667B0.0Ni0.1667Ti1.8333P3O12,7.7087817,
Li0.0642B0.0092Ni0.0000Ti0.1009P0.1651O0.6605,Li1.1667B0.1667Ni0.0Ti1.8333P3O12,7.7087817,
Li0.0727B0.0000Ni0.0182Ti0.0909P0.1636O0.6545,Li1.3333B0.0Ni0.3333Ti1.6667P3O12,7.7087817,
Li0.0727B0.0182Ni0.0000Ti0.0909P0.1636O0.6545,Li1.3333B0.3333Ni0.0Ti1.6667P3O12,7.7087817,
Li0.0811B0.0000Ni0.0270Ti0.0811P0.1622O0.6486,Li1.5B0.0Ni0.5Ti1.5P3O12,12.950637,
Li0.0811B0.0090Ni0.0180Ti0.0811P0.1622O0.6486,Li1.5B0.1667Ni0.3333Ti1.5P3O12,7.750805,2.4237090026400385
Li0.0811B0.0180Ni0.0090Ti0.0811P0.1622O0.6486,Li1.5B0.3333Ni0.1667Ti1.5P3O12,7.750805,5.334927305000579
Li0.0811B0.0270Ni0.0000Ti0.0811P0.1622O0.6486,Li1.5B0.5Ni0.0Ti1.5P3O12,7.750805,
Li0.0893B0.0000Ni0.0357Ti0.0714P0.1607O0.6429,Li1.6667B0.0Ni0.6667Ti1.3333P3O12,13.329165,
Li0.0893B0.0089Ni0.0268Ti0.0714P0.1607O0.6429,Li1.6667B0.1667Ni0.5Ti1.3333P3O12,13.329165,2.0327122527071033
Li0.0893B0.0268Ni0.0089Ti0.0714P0.1607O0.6429,Li1.6667B0.5Ni0.1667Ti1.3333P3O12,8.129335,6.810021436787651
Li0.0893B0.0357Ni0.0000Ti0.0714P0.1607O0.6429,Li1.6667B0.6667Ni0.0Ti1.3333P3O12,8.129335,
Li0.0973B0.0000Ni0.0442Ti0.0619P0.1593O0.6372,Li1.8333B0.0Ni0.8333Ti1.1667P3O12,13.373692,
Li0.0973B0.0177Ni0.0265Ti0.0619P0.1593O0.6372,Li1.8333B0.3333Ni0.5Ti1.1667P3O12,13.329165,3.324549525657384
Li0.0973B0.0265Ni0.0177Ti0.0619P0.1593O0.6372,Li1.8333B0.5Ni0.3333Ti1.1667P3O12,8.129335,5.108407925304704
Li0.0973B0.0442Ni0.0000Ti0.0619P0.1593O0.6372,Li1.8333B0.8333Ni0.0Ti1.1667P3O12,8.129335,
Li0.1053B0.0000Ni0.0526Ti0.0526P0.1579O0.6316,Li2.0B0.0Ni1.0Ti1.0P3O12,13.373692,
Li0.1053B0.0088Ni0.0439Ti0.0526P0.1579O0.6316,Li2.0B0.1667Ni0.8333Ti1.0P3O12,13.373692,1.6702259270934043
Li0.1053B0.0175Ni0.0351Ti0.0526P0.1579O0.6316,Li2.0B0.3333Ni0.6667Ti1.0P3O12,13.329165,2.9653986943107906
Li0.1053B0.0263Ni0.0263Ti0.0526P0.1579O0.6316,Li2.0B0.5Ni0.5Ti1.0P3O12,13.329165,4.33176954884853
Li0.1053B0.0351Ni0.0175Ti0.0526P0.1579O0.6316,Li2.0B0.6667Ni0.3333Ti1.0P3O12,8.129335,5.994340820332827
Li0.1429Cr0.0672B0.0252Ti0.0084P0.1513O0.6050,Li2.8333Cr1.3333B0.5Ti0.1667P3O12,17.018145,8.08121947914488
Li0.1053B0.0526Ni0.0000Ti0.0526P0.1579O0.6316,Li2.0B1.0Ni0.0Ti1.0P3O12,8.129335,
Li0.1130B0.0000Ni0.0609Ti0.0435P0.1565O0.6261,Li2.1667B0.0Ni1.1667Ti0.8333P3O12,13.441338,
Li0.1130B0.0087Ni0.0522Ti0.0435P0.1565O0.6261,Li2.1667B0.1667Ni1.0Ti0.8333P3O12,13.373692,2.120886091181806
Li0.1130B0.0261Ni0.0348Ti0.0435P0.1565O0.6261,Li2.1667B0.5Ni0.6667Ti0.8333P3O12,13.329165,0.04978874243548892
Li0.1130B0.0348Ni0.0261Ti0.0435P0.1565O0.6261,Li2.1667B0.6667Ni0.5Ti0.8333P3O12,13.329165,0.0695021276925445
Li0.1130B0.0522Ni0.0087Ti0.0435P0.1565O0.6261,Li2.1667B1.0Ni0.1667Ti0.8333P3O12,8.129335,0.5626467258885268
Li0.1130B0.0609Ni0.0000Ti0.0435P0.1565O0.6261,Li2.1667B1.1667Ni0.0Ti0.8333P3O12,8.129335,
Li0.1207B0.0000Ni0.0690Ti0.0345P0.1552O0.6207,Li2.3333B0.0Ni1.3333Ti0.6667P3O12,13.441338,
Li0.1207B0.0172Ni0.0517Ti0.0345P0.1552O0.6207,Li2.3333B0.3333Ni1.0Ti0.6667P3O12,13.373692,3.673747072462572
Li0.1207B0.0259Ni0.0431Ti0.0345P0.1552O0.6207,Li2.3333B0.5Ni0.8333Ti0.6667P3O12,13.373692,0.039452288200386626
Li0.1207B0.0431Ni0.0259Ti0.0345P0.1552O0.6207,Li2.3333B0.8333Ni0.5Ti0.6667P3O12,13.329165,0.072078735487933
Li0.1207B0.0517Ni0.0172Ti0.0345P0.1552O0.6207,Li2.3333B1.0Ni0.3333Ti0.6667P3O12,8.129335,1.062401678081508
Li0.1207B0.0690Ni0.0000Ti0.0345P0.1552O0.6207,Li2.3333B1.3333Ni0.0Ti0.6667P3O12,8.129335,
Li0.1282B0.0000Ni0.0769Ti0.0256P0.1538O0.6154,Li2.5B0.0Ni1.5Ti0.5P3O12,13.441338,
Li0.1282B0.0085Ni0.0684Ti0.0256P0.1538O0.6154,Li2.5B0.1667Ni1.3333Ti0.5P3O12,13.441338,2.642676720523022
Li0.1282B0.0171Ni0.0598Ti0.0256P0.1538O0.6154,Li2.5B0.3333Ni1.1667Ti0.5P3O12,13.373692,4.148533963944088
Li0.1282B0.0256Ni0.0513Ti0.0256P0.1538O0.6154,Li2.5B0.5Ni1.0Ti0.5P3O12,13.373692,5.175383394118863
Li0.1282B0.0342Ni0.0427Ti0.0256P0.1538O0.6154,Li2.5B0.6667Ni0.8333Ti0.5P3O12,13.373692,0.04102116800750637
Li0.1282B0.0427Ni0.0342Ti0.0256P0.1538O0.6154,Li2.5B0.8333Ni0.6667Ti0.5P3O12,13.329165,0.05430626443429824
Li0.1282B0.0513Ni0.0256Ti0.0256P0.1538O0.6154,Li2.5B1.0Ni0.5Ti0.5P3O12,13.329165,1.4851321132190822
Li0.1282B0.0598Ni0.0171Ti0.0256P0.1538O0.6154,Li2.5B1.1667Ni0.3333Ti0.5P3O12,8.129335,1.1063356319069502
Li0.1282B0.0684Ni0.0085Ti0.0256P0.1538O0.6154,Li2.5B1.3333Ni0.1667Ti0.5P3O12,8.129335,0.6416975335120685
Li0.1282B0.0769Ni0.0000Ti0.0256P0.1538O0.6154,Li2.5B1.5Ni0.0Ti0.5P3O12,8.129335,
Li0.1356B0.0000Ni0.0847Ti0.0169P0.1525O0.6102,Li2.6667B0.0Ni1.6667Ti0.3333P3O12,13.38264,
Li0.1356B0.0085Ni0.0763Ti0.0169P0.1525O0.6102,Li2.6667B0.1667Ni1.5Ti0.3333P3O12,13.441338,3.2196466253078406
Li0.1356B0.0254Ni0.0593Ti0.0169P0.1525O0.6102,Li2.6667B0.5Ni1.1667Ti0.3333P3O12,13.373692,6.158155413434474
Li0.1356B0.0339Fe0.0508Ti0.0169P0.1525O0.6102,Li2.6667B0.6667Fe1.0Ti0.3333P3O12,6.972733,8.03014974479592
Li0.1356B0.0508Ni0.0339Ti0.0169P0.1525O0.6102,Li2.6667B1.0Ni0.6667Ti0.3333P3O12,13.329165,1.8700725437903212
Li0.1356B0.0593Ni0.0254Ti0.0169P0.1525O0.6102,Li2.6667B1.1667Ni0.5Ti0.3333P3O12,13.329165,1.5615060563708778
Li0.1356B0.0763Ni0.0085Ti0.0169P0.1525O0.6102,Li2.6667B1.5Ni0.1667Ti0.3333P3O12,8.129335,0.7094497352911642
Li0.1356B0.0847Ni0.0000Ti0.0169P0.1525O0.6102,Li2.6667B1.6667Ni0.0Ti0.3333P3O12,8.129335,
Li0.1429B0.0000Ni0.0924Ti0.0084P0.1513O0.6050,Li2.8333B0.0Ni1.8333Ti0.1667P3O12,15.33442,
Li0.1429B0.0168Ni0.0756Ti0.0084P0.1513O0.6050,Li2.8333B0.3333Ni1.5Ti0.1667P3O12,15.393118,6.552668099851241
Li0.1356Fe0.0508B0.0339Ti0.0169P0.1525O0.6102,Li2.6667Fe1.0B0.6667Ti0.3333P3O12,6.972733,8.03014974479592
Li0.1429B0.0168Mn0.0756Ti0.0084P0.1513O0.6050,Li2.8333B0.3333Mn1.5Ti0.1667P3O12,9.4228525,7.902099794070398
Li0.1429B0.0504Ni0.0420Ti0.0084P0.1513O0.6050,Li2.8333B1.0Ni0.8333Ti0.1667P3O12,15.325472,2.344488171707714
Li0.1429B0.0672Ni0.0252Ti0.0084P0.1513O0.6050,Li2.8333B1.3333Ni0.5Ti0.1667P3O12,15.280946,1.7172950693939852
Li0.1429B0.0756Ni0.0168Ti0.0084P0.1513O0.6050,Li2.8333B1.5Ni0.3333Ti0.1667P3O12,11.860868,1.3356776716840184
Li0.1429B0.0924Ni0.0000Ti0.0084P0.1513O0.6050,Li2.8333B1.8333Ni0.0Ti0.1667P3O12,11.860868,
Li0.1500B0.0000Ni0.1000Ti0.0000P0.1500O0.6000,Li3.0B0.0Ni2.0Ti0.0P3O12,18.680473,
Li0.1500B0.0083Ni0.0917Ti0.0000P0.1500O0.6000,Li3.0B0.1667Ni1.8333Ti0.0P3O12,18.680473,
Li0.1500B0.0167Ni0.0833Ti0.0000P0.1500O0.6000,Li3.0B0.3333Ni1.6667Ti0.0P3O12,18.680473,
Li0.1500B0.0250Ni0.0750Ti0.0000P0.1500O0.6000,Li3.0B0.5Ni1.5Ti0.0P3O12,18.739172,
Li0.1500B0.0333Ni0.0667Ti0.0000P0.1500O0.6000,Li3.0B0.6667Ni1.3333Ti0.0P3O12,18.739172,
Li0.1500B0.0417Ni0.0583Ti0.0000P0.1500O0.6000,Li3.0B0.8333Ni1.1667Ti0.0P3O12,18.671526,
Li0.1500B0.0500Ni0.0500Ti0.0000P0.1500O0.6000,Li3.0B1.0Ni1.0Ti0.0P3O12,18.671526,
Li0.1500B0.0583Ni0.0417Ti0.0000P0.1500O0.6000,Li3.0B1.1667Ni0.8333Ti0.0P3O12,18.671526,
Li0.1500B0.0667Ni0.0333Ti0.0000P0.1500O0.6000,Li3.0B1.3333Ni0.6667Ti0.0P3O12,18.627003,
Li0.1500B0.0750Ni0.0250Ti0.0000P0.1500O0.6000,Li3.0B1.5Ni0.5Ti0.0P3O12,18.627003,
Li0.1500B0.0833Ni0.0167Ti0.0000P0.1500O0.6000,Li3.0B1.6667Ni0.3333Ti0.0P3O12,15.206924,
Li0.1500B0.0917Ni0.0083Ti0.0000P0.1500O0.6000,Li3.0B1.8333Ni0.1667Ti0.0P3O12,15.206924,
Li0.1500B0.1000Ni0.0000Ti0.0000P0.1500O0.6000,Li3.0B2.0Ni0.0Ti0.0P3O12,15.206924,
Li0.0556B0.0000Sb0.0000Ti0.1111P0.1667O0.6667,Li1.0B0.0Sb0.0Ti2.0P3O12,7.7087817,
Li0.0642B0.0000Sb0.0092Ti0.1009P0.1651O0.6605,Li1.1667B0.0Sb0.1667Ti1.8333P3O12,7.7087817,
Li0.0642B0.0092Sb0.0000Ti0.1009P0.1651O0.6605,Li1.1667B0.1667Sb0.0Ti1.8333P3O12,7.7087817,
Li0.0727B0.0000Sb0.0182Ti0.0909P0.1636O0.6545,Li1.3333B0.0Sb0.3333Ti1.6667P3O12,8.6522875,
Li0.0727B0.0182Sb0.0000Ti0.0909P0.1636O0.6545,Li1.3333B0.3333Sb0.0Ti1.6667P3O12,7.7087817,
Li0.0811B0.0000Sb0.0270Ti0.0811P0.1622O0.6486,Li1.5B0.0Sb0.5Ti1.5P3O12,8.677033,
Li0.0811B0.0090Sb0.0180Ti0.0811P0.1622O0.6486,Li1.5B0.1667Sb0.3333Ti1.5P3O12,8.69431,1.0006914035741143
Li0.0811B0.0180Sb0.0090Ti0.0811P0.1622O0.6486,Li1.5B0.3333Sb0.1667Ti1.5P3O12,7.750805,2.0873617502601847
Li0.0811B0.0270Sb0.0000Ti0.0811P0.1622O0.6486,Li1.5B0.5Sb0.0Ti1.5P3O12,7.750805,
Li0.0893B0.0000Sb0.0357Ti0.0714P0.1607O0.6429,Li1.6667B0.0Sb0.6667Ti1.3333P3O12,9.055562,
Li0.0893B0.0089Sb0.0268Ti0.0714P0.1607O0.6429,Li1.6667B0.1667Sb0.5Ti1.3333P3O12,9.055562,0.8417286140452829
Li0.0893B0.0268Sb0.0089Ti0.0714P0.1607O0.6429,Li1.6667B0.5Sb0.1667Ti1.3333P3O12,8.129335,2.6705029681180648
Li0.0893B0.0357Sb0.0000Ti0.0714P0.1607O0.6429,Li1.6667B0.6667Sb0.0Ti1.3333P3O12,8.129335,
Li0.0973B0.0000Sb0.0442Ti0.0619P0.1593O0.6372,Li1.8333B0.0Sb0.8333Ti1.1667P3O12,9.055562,
Li0.0973B0.0177Sb0.0265Ti0.0619P0.1593O0.6372,Li1.8333B0.3333Sb0.5Ti1.1667P3O12,9.055562,1.3804800855494248
Li0.0973B0.0265Sb0.0177Ti0.0619P0.1593O0.6372,Li1.8333B0.5Sb0.3333Ti1.1667P3O12,9.072839,2.040137698524513
Li0.0973B0.0442Sb0.0000Ti0.0619P0.1593O0.6372,Li1.8333B0.8333Sb0.0Ti1.1667P3O12,8.129335,
Li0.1053B0.0000Sb0.0526Ti0.0526P0.1579O0.6316,Li2.0B0.0Sb1.0Ti1.0P3O12,9.055562,
Li0.1053B0.0088Sb0.0439Ti0.0526P0.1579O0.6316,Li2.0B0.1667Sb0.8333Ti1.0P3O12,9.055562,0.6589191947256885
Li0.1053B0.0175Sb0.0351Ti0.0526P0.1579O0.6316,Li2.0B0.3333Sb0.6667Ti1.0P3O12,9.055562,1.2052935541992478
Li0.1053B0.0263Sb0.0263Ti0.0526P0.1579O0.6316,Li2.0B0.5Sb0.5Ti1.0P3O12,9.055562,1.7320918929994786
Li0.1053B0.0351Sb0.0175Ti0.0526P0.1579O0.6316,Li2.0B0.6667Sb0.3333Ti1.0P3O12,9.072839,2.3203748360828595
Li0.1053B0.0439Sb0.0088Ti0.0526P0.1579O0.6316,Li2.0B0.8333Sb0.1667Ti1.0P3O12,8.129335,3.3251883786710863
Li0.1053B0.0526Sb0.0000Ti0.0526P0.1579O0.6316,Li2.0B1.0Sb0.0Ti1.0P3O12,8.129335,
Li0.1130B0.0000Sb0.0609Ti0.0435P0.1565O0.6261,Li2.1667B0.0Sb1.1667Ti0.8333P3O12,9.055562,
Li0.1130B0.0087Sb0.0522Ti0.0435P0.1565O0.6261,Li2.1667B0.1667Sb1.0Ti0.8333P3O12,9.055562,0.4907728588661824
Li0.1130B0.0261Sb0.0348Ti0.0435P0.1565O0.6261,Li2.1667B0.5Sb0.6667Ti0.8333P3O12,9.055562,0.0036782351983925864
Li0.1130B0.0348Sb0.0261Ti0.0435P0.1565O0.6261,Li2.1667B0.6667Sb0.5Ti0.8333P3O12,9.055562,0.005373214103422551
Li0.1130B0.0522Sb0.0087Ti0.0435P0.1565O0.6261,Li2.1667B1.0Sb0.1667Ti0.8333P3O12,8.129335,0.12826348535521795
Li0.1130B0.0609Sb0.0000Ti0.0435P0.1565O0.6261,Li2.1667B1.1667Sb0.0Ti0.8333P3O12,8.129335,
Li0.1207B0.0000Sb0.0690Ti0.0345P0.1552O0.6207,Li2.3333B0.0Sb1.3333Ti0.6667P3O12,9.055562,
Li0.1207B0.0172Sb0.0517Ti0.0345P0.1552O0.6207,Li2.3333B0.3333Sb1.0Ti0.6667P3O12,9.055562,0.9123870027870999
Li0.1207B0.0259Sb0.0431Ti0.0345P0.1552O0.6207,Li2.3333B0.5Sb0.8333Ti0.6667P3O12,9.055562,0.002748534666681749
Li0.1207B0.0431Sb0.0259Ti0.0345P0.1552O0.6207,Li2.3333B0.8333Sb0.5Ti0.6667P3O12,9.055562,0.005566138006455335
Li0.1207B0.0517Sb0.0172Ti0.0345P0.1552O0.6207,Li2.3333B1.0Sb0.3333Ti0.6667P3O12,9.072839,0.2020138102072349