formula,original_formula,thermal_expansion,li ion conductivity
Li0.0973In0.0265Fe0.0177Ti0.0619P0.1593O0.6372,Li1.8333In0.5Fe0.3333Ti1.1667P3O12,8.690509,0.07889299801307995
Li0.0973In0.0442Fe0.0000Ti0.0619P0.1593O0.6372,Li1.8333In0.8333Fe0.0Ti1.1667P3O12,8.690509,
Li0.1053In0.0000Fe0.0526Ti0.0526P0.1579O0.6316,Li2.0In0.0Fe1.0Ti1.0P3O12,7.040515,
Li0.1053In0.0088Fe0.0439Ti0.0526P0.1579O0.6316,Li2.0In0.1667Fe0.8333Ti1.0P3O12,6.972733,0.07187034671936908
Li0.1053In0.0175Fe0.0351Ti0.0526P0.1579O0.6316,Li2.0In0.3333Fe0.6667Ti1.0P3O12,7.3240223,0.0756646276103812
Li0.1053In0.0263Fe0.0263Ti0.0526P0.1579O0.6316,Li2.0In0.5Fe0.5Ti1.0P3O12,7.611272,0.07028980799645129
Li0.1053In0.0351Fe0.0175Ti0.0526P0.1579O0.6316,Li2.0In0.6667Fe0.3333Ti1.0P3O12,8.690509,0.0675854263805507
Li0.1053In0.0439Fe0.0088Ti0.0526P0.1579O0.6316,Li2.0In0.8333Fe0.1667Ti1.0P3O12,8.690509,0.06970112438754747
Li0.1053In0.0526Fe0.0000Ti0.0526P0.1579O0.6316,Li2.0In1.0Fe0.0Ti1.0P3O12,8.690509,
Li0.1130In0.0000Fe0.0609Ti0.0435P0.1565O0.6261,Li2.1667In0.0Fe1.1667Ti0.8333P3O12,7.040515,
Li0.1130In0.0087Fe0.0522Ti0.0435P0.1565O0.6261,Li2.1667In0.1667Fe1.0Ti0.8333P3O12,6.972733,0.06507162990245727
Li0.1130In0.0261Fe0.0348Ti0.0435P0.1565O0.6261,Li2.1667In0.5Fe0.6667Ti0.8333P3O12,7.611272,2.933513917601466e-06
Li0.1130In0.0348Fe0.0261Ti0.0435P0.1565O0.6261,Li2.1667In0.6667Fe0.5Ti0.8333P3O12,7.611272,3.7586860230148e-06
Li0.1130In0.0522Fe0.0087Ti0.0435P0.1565O0.6261,Li2.1667In1.0Fe0.1667Ti0.8333P3O12,8.690509,0.031540596027490625
Li0.1130In0.0609Fe0.0000Ti0.0435P0.1565O0.6261,Li2.1667In1.1667Fe0.0Ti0.8333P3O12,8.690509,
Li0.1207In0.0000Fe0.0690Ti0.0345P0.1552O0.6207,Li2.3333In0.0Fe1.3333Ti0.6667P3O12,7.040515,
Li0.1207In0.0172Fe0.0517Ti0.0345P0.1552O0.6207,Li2.3333In0.3333Fe1.0Ti0.6667P3O12,7.259211,0.06448670353313739
Li0.1207In0.0259Fe0.0431Ti0.0345P0.1552O0.6207,Li2.3333In0.5Fe0.8333Ti0.6667P3O12,7.5464606,1.9422122992171103e-06
Li0.1207In0.0431Fe0.0259Ti0.0345P0.1552O0.6207,Li2.3333In0.8333Fe0.5Ti0.6667P3O12,7.611272,2.9943471368354826e-06
Li0.1207In0.0517Fe0.0172Ti0.0345P0.1552O0.6207,Li2.3333In1.0Fe0.3333Ti0.6667P3O12,8.690509,0.05130777056275751
Li0.1207In0.0690Fe0.0000Ti0.0345P0.1552O0.6207,Li2.3333In1.3333Fe0.0Ti0.6667P3O12,8.690509,
Li0.1282In0.0000Fe0.0769Ti0.0256P0.1538O0.6154,Li2.5In0.0Fe1.5Ti0.5P3O12,7.040515,
Li0.1282In0.0085Fe0.0684Ti0.0256P0.1538O0.6154,Li2.5In0.1667Fe1.3333Ti0.5P3O12,7.040515,0.06601940881069339
Li0.1282In0.0171Fe0.0598Ti0.0256P0.1538O0.6154,Li2.5In0.3333Fe1.1667Ti0.5P3O12,7.326993,0.06388500615918828
Li0.1282In0.0256Fe0.0513Ti0.0256P0.1538O0.6154,Li2.5In0.5Fe1.0Ti0.5P3O12,7.5464606,0.056336285935682406
Li0.1282In0.0342Fe0.0427Ti0.0256P0.1538O0.6154,Li2.5In0.6667Fe0.8333Ti0.5P3O12,7.5464606,1.5354794589696801e-06
Li0.1282In0.0427Fe0.0342Ti0.0256P0.1538O0.6154,Li2.5In0.8333Fe0.6667Ti0.5P3O12,7.611272,1.827049109628247e-06
Li0.1282In0.0513Fe0.0256Ti0.0256P0.1538O0.6154,Li2.5In1.0Fe0.5Ti0.5P3O12,7.611272,0.060715348476696324
Li0.1282In0.0598Fe0.0171Ti0.0256P0.1538O0.6154,Li2.5In1.1667Fe0.3333Ti0.5P3O12,8.690509,0.0550493531222388
Li0.1282In0.0684Fe0.0085Ti0.0256P0.1538O0.6154,Li2.5In1.3333Fe0.1667Ti0.5P3O12,8.690509,0.038689411609558605
Li0.1282In0.0769Fe0.0000Ti0.0256P0.1538O0.6154,Li2.5In1.5Fe0.0Ti0.5P3O12,5.7995377,
Li0.1356In0.0000Fe0.0847Ti0.0169P0.1525O0.6102,Li2.6667In0.0Fe1.6667Ti0.3333P3O12,7.040515,
Li0.1356In0.0085Fe0.0763Ti0.0169P0.1525O0.6102,Li2.6667In0.1667Fe1.5Ti0.3333P3O12,7.040515,0.06841535424221692
Li0.1356In0.0254Fe0.0593Ti0.0169P0.1525O0.6102,Li2.6667In0.5Fe1.1667Ti0.3333P3O12,7.6142426,0.05816922263646141
Li0.1356In0.0339Fe0.0508Ti0.0169P0.1525O0.6102,Li2.6667In0.6667Fe1.0Ti0.3333P3O12,7.5464606,0.05139527509760606
Li0.1356In0.0508Fe0.0339Ti0.0169P0.1525O0.6102,Li2.6667In1.0Fe0.6667Ti0.3333P3O12,7.611272,0.07221593540692867
Li0.1356In0.0593Fe0.0254Ti0.0169P0.1525O0.6102,Li2.6667In1.1667Fe0.5Ti0.3333P3O12,7.611272,0.06624246348264093
Li0.1356In0.0763Fe0.0085Ti0.0169P0.1525O0.6102,Li2.6667In1.5Fe0.1667Ti0.3333P3O12,8.690509,0.045216137933306914
Li0.1356In0.0847Fe0.0000Ti0.0169P0.1525O0.6102,Li2.6667In1.6667Fe0.0Ti0.3333P3O12,5.7995377,
Li0.1429In0.0000Fe0.0924Ti0.0084P0.1513O0.6050,Li2.8333In0.0Fe1.8333Ti0.1667P3O12,10.772052,
Li0.1429In0.0168Fe0.0756Ti0.0084P0.1513O0.6050,Li2.8333In0.3333Fe1.5Ti0.1667P3O12,11.058529,0.06861470460696091
Li0.1429In0.0252Fe0.0672Ti0.0084P0.1513O0.6050,Li2.8333In0.5Fe1.3333Ti0.1667P3O12,11.3457775,0.06272497963735109
Li0.1429In0.0420Fe0.0504Ti0.0084P0.1513O0.6050,Li2.8333In0.8333Fe1.0Ti0.1667P3O12,11.277995,0.05310189920148273
Li0.1429In0.0504Fe0.0420Ti0.0084P0.1513O0.6050,Li2.8333In1.0Fe0.8333Ti0.1667P3O12,11.277995,0.09297407259108477
Li0.1429In0.0672Fe0.0252Ti0.0084P0.1513O0.6050,Li2.8333In1.3333Fe0.5Ti0.1667P3O12,11.342806,0.0771567496471778
Li0.1429In0.0756Fe0.0168Ti0.0084P0.1513O0.6050,Li2.8333In1.5Fe0.3333Ti0.1667P3O12,12.422039,0.07062089545408812
Li0.1429In0.0924Fe0.0000Ti0.0084P0.1513O0.6050,Li2.8333In1.8333Fe0.0Ti0.1667P3O12,9.531069,
Li0.1500In0.0000Fe0.1000Ti0.0000P0.1500O0.6000,Li3.0In0.0Fe2.0Ti0.0P3O12,13.206304,
Li0.1500In0.0083Fe0.0917Ti0.0000P0.1500O0.6000,Li3.0In0.1667Fe1.8333Ti0.0P3O12,13.332053,
Li0.1500In0.0167Fe0.0833Ti0.0000P0.1500O0.6000,Li3.0In0.3333Fe1.6667Ti0.0P3O12,13.61853,
Li0.1500In0.0250Fe0.0750Ti0.0000P0.1500O0.6000,Li3.0In0.5Fe1.5Ti0.0P3O12,13.905779,
Li0.1500In0.0333Fe0.0667Ti0.0000P0.1500O0.6000,Li3.0In0.6667Fe1.3333Ti0.0P3O12,13.905779,
Li0.1500In0.0417Fe0.0583Ti0.0000P0.1500O0.6000,Li3.0In0.8333Fe1.1667Ti0.0P3O12,13.905779,
Li0.1500In0.0500Fe0.0500Ti0.0000P0.1500O0.6000,Li3.0In1.0Fe1.0Ti0.0P3O12,13.8379965,
Li0.1500In0.0583Fe0.0417Ti0.0000P0.1500O0.6000,Li3.0In1.1667Fe0.8333Ti0.0P3O12,13.8379965,
Li0.1500In0.0667Fe0.0333Ti0.0000P0.1500O0.6000,Li3.0In1.3333Fe0.6667Ti0.0P3O12,13.902807,
Li0.1500In0.0750Fe0.0250Ti0.0000P0.1500O0.6000,Li3.0In1.5Fe0.5Ti0.0P3O12,13.902807,
Li0.1500In0.0833Fe0.0167Ti0.0000P0.1500O0.6000,Li3.0In1.6667Fe0.3333Ti0.0P3O12,12.877124,
Li0.1500In0.0917Fe0.0083Ti0.0000P0.1500O0.6000,Li3.0In1.8333Fe0.1667Ti0.0P3O12,12.877124,
Li0.1500In0.1000Fe0.0000Ti0.0000P0.1500O0.6000,Li3.0In2.0Fe0.0Ti0.0P3O12,12.877124,
Li0.0556In0.0000Ga0.0000Ti0.1111P0.1667O0.6667,Li1.0In0.0Ga0.0Ti2.0P3O12,7.7087817,
Li0.0642In0.0000Ga0.0092Ti0.1009P0.1651O0.6605,Li1.1667In0.0Ga0.1667Ti1.8333P3O12,7.7087817,
Li0.0642In0.0092Ga0.0000Ti0.1009P0.1651O0.6605,Li1.1667In0.1667Ga0.0Ti1.8333P3O12,7.7087817,
Li0.0727In0.0000Ga0.0182Ti0.0909P0.1636O0.6545,Li1.3333In0.0Ga0.3333Ti1.6667P3O12,7.678768,
Li0.0727In0.0182Ga0.0000Ti0.0909P0.1636O0.6545,Li1.3333In0.3333Ga0.0Ti1.6667P3O12,8.017441,
Li0.0811In0.0000Ga0.0270Ti0.0811P0.1622O0.6486,Li1.5In0.0Ga0.5Ti1.5P3O12,7.7207913,
Li0.0811In0.0090Ga0.0180Ti0.0811P0.1622O0.6486,Li1.5In0.1667Ga0.3333Ti1.5P3O12,7.7207913,0.17475744798418458
Li0.0811In0.0180Ga0.0090Ti0.0811P0.1622O0.6486,Li1.5In0.3333Ga0.1667Ti1.5P3O12,8.036197,0.2342585360902819
Li0.0811In0.0270Ga0.0000Ti0.0811P0.1622O0.6486,Li1.5In0.5Ga0.0Ti1.5P3O12,8.31198,
Li0.0893In0.0000Ga0.0357Ti0.0714P0.1607O0.6429,Li1.6667In0.0Ga0.6667Ti1.3333P3O12,8.099321,
Li0.0893In0.0089Ga0.0268Ti0.0714P0.1607O0.6429,Li1.6667In0.1667Ga0.5Ti1.3333P3O12,8.099321,0.17109357067350278
Li0.0893In0.0268Ga0.0089Ti0.0714P0.1607O0.6429,Li1.6667In0.5Ga0.1667Ti1.3333P3O12,8.690509,0.2562337496667368
Li0.0893In0.0357Ga0.0000Ti0.0714P0.1607O0.6429,Li1.6667In0.6667Ga0.0Ti1.3333P3O12,8.690509,
Li0.0973In0.0000Ga0.0442Ti0.0619P0.1593O0.6372,Li1.8333In0.0Ga0.8333Ti1.1667P3O12,8.099321,
Li0.0973In0.0177Ga0.0265Ti0.0619P0.1593O0.6372,Li1.8333In0.3333Ga0.5Ti1.1667P3O12,8.38471,0.1978297444555563
Li0.0973In0.0265Ga0.0177Ti0.0619P0.1593O0.6372,Li1.8333In0.5Ga0.3333Ti1.1667P3O12,8.660495,0.2272678780206958
Li0.0973In0.0442Ga0.0000Ti0.0619P0.1593O0.6372,Li1.8333In0.8333Ga0.0Ti1.1667P3O12,8.690509,
Li0.1053In0.0000Ga0.0526Ti0.0526P0.1579O0.6316,Li2.0In0.0Ga1.0Ti1.0P3O12,8.099321,
Li0.1053In0.0088Ga0.0439Ti0.0526P0.1579O0.6316,Li2.0In0.1667Ga0.8333Ti1.0P3O12,8.099321,0.1693613719008526
Li0.1053In0.0175Ga0.0351Ti0.0526P0.1579O0.6316,Li2.0In0.3333Ga0.6667Ti1.0P3O12,8.373245,0.19540975714769687
Li0.1053In0.0263Ga0.0263Ti0.0526P0.1579O0.6316,Li2.0In0.5Ga0.5Ti1.0P3O12,8.660495,0.21426310736165657
Li0.1053In0.0351Ga0.0175Ti0.0526P0.1579O0.6316,Li2.0In0.6667Ga0.3333Ti1.0P3O12,8.660495,0.2332309434160051
Li0.1053In0.0439Ga0.0088Ti0.0526P0.1579O0.6316,Li2.0In0.8333Ga0.1667Ti1.0P3O12,8.690509,0.27420315215637686
Li0.1053In0.0526Ga0.0000Ti0.0526P0.1579O0.6316,Li2.0In1.0Ga0.0Ti1.0P3O12,8.690509,
Li0.1130In0.0000Ga0.0609Ti0.0435P0.1565O0.6261,Li2.1667In0.0Ga1.1667Ti0.8333P3O12,6.7658024,
Li0.1130In0.0087Ga0.0522Ti0.0435P0.1565O0.6261,Li2.1667In0.1667Ga1.0Ti0.8333P3O12,8.099321,0.0015563839265216796
Li0.1130In0.0261Ga0.0348Ti0.0435P0.1565O0.6261,Li2.1667In0.5Ga0.6667Ti0.8333P3O12,8.660495,0.0006820864419392346
Li0.1130In0.0348Ga0.0261Ti0.0435P0.1565O0.6261,Li2.1667In0.6667Ga0.5Ti0.8333P3O12,8.660495,0.0008495309232934937
Li0.1130In0.0522Ga0.0087Ti0.0435P0.1565O0.6261,Li2.1667In1.0Ga0.1667Ti0.8333P3O12,8.690509,0.015748835945270382
Li0.1130In0.0609Ga0.0000Ti0.0435P0.1565O0.6261,Li2.1667In1.1667Ga0.0Ti0.8333P3O12,8.690509,
Li0.1207In0.0000Ga0.0690Ti0.0345P0.1552O0.6207,Li2.3333In0.0Ga1.3333Ti0.6667P3O12,6.7658024,
Li0.1207In0.0172Ga0.0517Ti0.0345P0.1552O0.6207,Li2.3333In0.3333Ga1.0Ti0.6667P3O12,8.373245,0.0011335072075810246
Li0.1207In0.0259Ga0.0431Ti0.0345P0.1552O0.6207,Li2.3333In0.5Ga0.8333Ti0.6667P3O12,8.660495,0.0004663097208517496
Li0.1207In0.0431Ga0.0259Ti0.0345P0.1552O0.6207,Li2.3333In0.8333Ga0.5Ti0.6667P3O12,8.660495,0.0006842557096652856
Li0.1207In0.0517Ga0.0172Ti0.0345P0.1552O0.6207,Li2.3333In1.0Ga0.3333Ti0.6667P3O12,8.660495,0.013340603482601642
Li0.1207In0.0690Ga0.0000Ti0.0345P0.1552O0.6207,Li2.3333In1.3333Ga0.0Ti0.6667P3O12,8.690509,
Li0.1282In0.0000Ga0.0769Ti0.0256P0.1538O0.6154,Li2.5In0.0Ga1.5Ti0.5P3O12,6.7658024,
Li0.1282In0.0085Ga0.0684Ti0.0256P0.1538O0.6154,Li2.5In0.1667Ga1.3333Ti0.5P3O12,6.7658024,0.0018135067358268791
Li0.1282In0.0171Ga0.0598Ti0.0256P0.1538O0.6154,Li2.5In0.3333Ga1.1667Ti0.5P3O12,7.078081,0.0013104492210055008
Li0.1282In0.0256Ga0.0513Ti0.0256P0.1538O0.6154,Li2.5In0.5Ga1.0Ti0.5P3O12,8.660495,0.0009619032874404154
Li0.1282In0.0342Ga0.0427Ti0.0256P0.1538O0.6154,Li2.5In0.6667Ga0.8333Ti0.5P3O12,8.660495,0.00036362815382443334
Li0.1282In0.0427Ga0.0342Ti0.0256P0.1538O0.6154,Li2.5In0.8333Ga0.6667Ti0.5P3O12,8.660495,0.0004289486259597173
Li0.1282In0.0513Ga0.0256Ti0.0256P0.1538O0.6154,Li2.5In1.0Ga0.5Ti0.5P3O12,8.660495,0.013052109090601099
Li0.1282In0.0598Ga0.0171Ti0.0256P0.1538O0.6154,Li2.5In1.1667Ga0.3333Ti0.5P3O12,8.660495,0.014889959757383496
Li0.1282In0.0684Ga0.0085Ti0.0256P0.1538O0.6154,Li2.5In1.3333Ga0.1667Ti0.5P3O12,8.690509,0.017311308145823708
Li0.1282In0.0769Ga0.0000Ti0.0256P0.1538O0.6154,Li2.5In1.5Ga0.0Ti0.5P3O12,5.7995377,
Li0.1356In0.0000Ga0.0847Ti0.0169P0.1525O0.6102,Li2.6667In0.0Ga1.6667Ti0.3333P3O12,6.7658024,
Li0.1356In0.0085Ga0.0763Ti0.0169P0.1525O0.6102,Li2.6667In0.1667Ga1.5Ti0.3333P3O12,6.7658024,0.0022783389351622137
Li0.1356In0.0254Ga0.0593Ti0.0169P0.1525O0.6102,Li2.6667In0.5Ga1.1667Ti0.3333P3O12,7.365331,0.0012776585188982287
Li0.1356In0.0339Ga0.0508Ti0.0169P0.1525O0.6102,Li2.6667In0.6667Ga1.0Ti0.3333P3O12,8.660495,0.0010232463449164906
Li0.1356In0.0508Ga0.0339Ti0.0169P0.1525O0.6102,Li2.6667In1.0Ga0.6667Ti0.3333P3O12,8.660495,0.015339999589810952
Li0.1356In0.0593Ga0.0254Ti0.0169P0.1525O0.6102,Li2.6667In1.1667Ga0.5Ti0.3333P3O12,8.660495,0.016585605493236816
Li0.1356In0.0763Ga0.0085Ti0.0169P0.1525O0.6102,Li2.6667In1.5Ga0.1667Ti0.3333P3O12,8.690509,0.02043065216835927
Li0.1356In0.0847Ga0.0000Ti0.0169P0.1525O0.6102,Li2.6667In1.6667Ga0.0Ti0.3333P3O12,5.7995377,
Li0.1429In0.0000Ga0.0924Ti0.0084P0.1513O0.6050,Li2.8333In0.0Ga1.8333Ti0.1667P3O12,10.497339,
Li0.1429In0.0168Ga0.0756Ti0.0084P0.1513O0.6050,Li2.8333In0.3333Ga1.5Ti0.1667P3O12,10.809617,0.0026647607691046675
Li0.1429In0.0252Ga0.0672Ti0.0084P0.1513O0.6050,Li2.8333In0.5Ga1.3333Ti0.1667P3O12,11.096866,0.002121900455351458
Li0.1429In0.0420Ga0.0504Ti0.0084P0.1513O0.6050,Li2.8333In0.8333Ga1.0Ti0.1667P3O12,12.392025,0.0015344278239216586
Li0.1429In0.0504Ga0.0420Ti0.0084P0.1513O0.6050,Li2.8333In1.0Ga0.8333Ti0.1667P3O12,12.392025,0.02154338496250268
Li0.1429In0.0672Ga0.0252Ti0.0084P0.1513O0.6050,Li2.8333In1.3333Ga0.5Ti0.1667P3O12,12.392025,0.023860096455905984
Li0.1429In0.0756Ga0.0168Ti0.0084P0.1513O0.6050,Li2.8333In1.5Ga0.3333Ti0.1667P3O12,12.392025,0.0263787467232904
Li0.1429In0.0924Ga0.0000Ti0.0084P0.1513O0.6050,Li2.8333In1.8333Ga0.0Ti0.1667P3O12,9.531069,
Li0.1500In0.0000Ga0.1000Ti0.0000P0.1500O0.6000,Li3.0In0.0Ga2.0Ti0.0P3O12,13.755412,
Li0.1500In0.0083Ga0.0917Ti0.0000P0.1500O0.6000,Li3.0In0.1667Ga1.8333Ti0.0P3O12,13.843395,
Li0.1500In0.0167Ga0.0833Ti0.0000P0.1500O0.6000,Li3.0In0.3333Ga1.6667Ti0.0P3O12,14.155673,
Li0.1500In0.0250Ga0.0750Ti0.0000P0.1500O0.6000,Li3.0In0.5Ga1.5Ti0.0P3O12,14.442922,
Li0.1500In0.0333Ga0.0667Ti0.0000P0.1500O0.6000,Li3.0In0.6667Ga1.3333Ti0.0P3O12,14.442922,
Li0.1500In0.0417Ga0.0583Ti0.0000P0.1500O0.6000,Li3.0In0.8333Ga1.1667Ti0.0P3O12,15.738081,
Li0.1500In0.0500Ga0.0500Ti0.0000P0.1500O0.6000,Li3.0In1.0Ga1.0Ti0.0P3O12,15.738081,
Li0.1500In0.0583Ga0.0417Ti0.0000P0.1500O0.6000,Li3.0In1.1667Ga0.8333Ti0.0P3O12,15.738081,
Li0.1500In0.0667Ga0.0333Ti0.0000P0.1500O0.6000,Li3.0In1.3333Ga0.6667Ti0.0P3O12,15.738081,
Li0.1500In0.0750Ga0.0250Ti0.0000P0.1500O0.6000,Li3.0In1.5Ga0.5Ti0.0P3O12,15.738081,
Li0.1500In0.0833Ga0.0167Ti0.0000P0.1500O0.6000,Li3.0In1.6667Ga0.3333Ti0.0P3O12,12.84711,
Li0.1500In0.0917Ga0.0083Ti0.0000P0.1500O0.6000,Li3.0In1.8333Ga0.1667Ti0.0P3O12,12.877124,
Li0.1500In0.1000Ga0.0000Ti0.0000P0.1500O0.6000,Li3.0In2.0Ga0.0Ti0.0P3O12,12.877124,
Li0.0556In0.0000Ti0.1111P0.1667O0.6667,Li1.0In0.0In0.0Ti2.0P3O12,7.7087817,
Li0.0642In0.0092Ti0.1009P0.1651O0.6605,Li1.1667In0.0In0.1667Ti1.8333P3O12,7.7087817,0.22530981138093054
Li0.0642In0.0092Ti0.1009P0.1651O0.6605,Li1.1667In0.1667In0.0Ti1.8333P3O12,7.7087817,
Li0.0727In0.0182Ti0.0909P0.1636O0.6545,Li1.3333In0.0In0.3333Ti1.6667P3O12,8.017441,0.19476737498066865
Li0.0727In0.0182Ti0.0909P0.1636O0.6545,Li1.3333In0.3333In0.0Ti1.6667P3O12,8.017441,
Li0.0811In0.0270Ti0.0811P0.1622O0.6486,Li1.5In0.0In0.5Ti1.5P3O12,8.31198,0.113752048139233
Li0.0811In0.0270Ti0.0811P0.1622O0.6486,Li1.5In0.1667In0.3333Ti1.5P3O12,8.31198,0.17680011289738756
Li0.0811In0.0270Ti0.0811P0.1622O0.6486,Li1.5In0.3333In0.1667Ti1.5P3O12,8.31198,0.20415123946383937
Li0.0811In0.0270Ti0.0811P0.1622O0.6486,Li1.5In0.5In0.0Ti1.5P3O12,8.31198,
Li0.0893In0.0357Ti0.0714P0.1607O0.6429,Li1.6667In0.0In0.6667Ti1.3333P3O12,8.690509,0.06007491970409457
Li0.0893In0.0357Ti0.0714P0.1607O0.6429,Li1.6667In0.1667In0.5Ti1.3333P3O12,8.690509,0.09655559646172583
Li0.0893In0.0357Ti0.0714P0.1607O0.6429,Li1.6667In0.5In0.1667Ti1.3333P3O12,8.690509,0.19169199577246526
Li0.0893In0.0357Ti0.0714P0.1607O0.6429,Li1.6667In0.6667In0.0Ti1.3333P3O12,8.690509,
Li0.0973In0.0442Ti0.0619P0.1593O0.6372,Li1.8333In0.0In0.8333Ti1.1667P3O12,8.690509,0.03337507428421418
Li0.0973In0.0442Ti0.0619P0.1593O0.6372,Li1.8333In0.3333In0.5Ti1.1667P3O12,8.690509,0.08196790534171003
Li0.0973In0.0442Ti0.0619P0.1593O0.6372,Li1.8333In0.5In0.3333Ti1.1667P3O12,8.690509,0.13779496568867516
Li0.0973In0.0442Ti0.0619P0.1593O0.6372,Li1.8333In0.8333In0.0Ti1.1667P3O12,8.690509,
Li0.1053In0.0526Ti0.0526P0.1579O0.6316,Li2.0In0.0In1.0Ti1.0P3O12,8.690509,0.0002170697719554744
Li0.1053In0.0526Ti0.0526P0.1579O0.6316,Li2.0In0.1667In0.8333Ti1.0P3O12,8.690509,0.028041645648886417
Li0.1053In0.0526Ti0.0526P0.1579O0.6316,Li2.0In0.3333In0.6667Ti1.0P3O12,8.690509,0.04240868029794852
Li0.1053In0.0526Ti0.0526P0.1579O0.6316,Li2.0In0.5In0.5Ti1.0P3O12,8.690509,0.06872040716435934
Li0.1053In0.0526Ti0.0526P0.1579O0.6316,Li2.0In0.6667In0.3333Ti1.0P3O12,8.690509,0.11781293623924002
Li0.1053In0.0526Ti0.0526P0.1579O0.6316,Li2.0In0.8333In0.1667Ti1.0P3O12,8.690509,0.16623699587443105
Li0.1053In0.0526Ti0.0526P0.1579O0.6316,Li2.0In1.0In0.0Ti1.0P3O12,8.690509,
Li0.1130In0.0609Ti0.0435P0.1565O0.6261,Li2.1667In0.0In1.1667Ti0.8333P3O12,8.690509,0.0011109569034628375
Li0.1130In0.0609Ti0.0435P0.1565O0.6261,Li2.1667In0.1667In1.0Ti0.8333P3O12,8.690509,0.0011242756457368205
Li0.1130In0.0609Ti0.0435P0.1565O0.6261,Li2.1667In0.5In0.6667Ti0.8333P3O12,8.690509,3.424328827994304e-06
Li0.1130In0.0609Ti0.0435P0.1565O0.6261,Li2.1667In0.6667In0.5Ti0.8333P3O12,8.690509,3.962028151343223e-06
Li0.1130In0.0609Ti0.0435P0.1565O0.6261,Li2.1667In1.0In0.1667Ti0.8333P3O12,8.690509,7.5723634921518246e-06
Li0.1130In0.0609Ti0.0435P0.1565O0.6261,Li2.1667In1.1667In0.0Ti0.8333P3O12,8.690509,
Li0.1207In0.0690Ti0.0345P0.1552O0.6207,Li2.3333In0.0In1.3333Ti0.6667P3O12,8.690509,0.0009385963629636909
Li0.1207In0.0690Ti0.0345P0.1552O0.6207,Li2.3333In0.3333In1.0Ti0.6667P3O12,8.690509,0.0009593002883238862
Li0.1207In0.0690Ti0.0345P0.1552O0.6207,Li2.3333In0.5In0.8333Ti0.6667P3O12,8.690509,3.725120183953781e-06
Li0.1207In0.0690Ti0.0345P0.1552O0.6207,Li2.3333In0.8333In0.5Ti0.6667P3O12,8.690509,4.792088456089546e-06
Li0.1207In0.0690Ti0.0345P0.1552O0.6207,Li2.3333In1.0In0.3333Ti0.6667P3O12,8.690509,5.923120704298598e-06
Li0.1207In0.0690Ti0.0345P0.1552O0.6207,Li2.3333In1.3333In0.0Ti0.6667P3O12,8.690509,
Li0.1282In0.0769Ti0.0256P0.1538O0.6154,Li2.5In0.0In1.5Ti0.5P3O12,5.7995377,0.0007466358931463211
Li0.1282In0.0769Ti0.0256P0.1538O0.6154,Li2.5In0.1667In1.3333Ti0.5P3O12,5.7995377,0.0007543170772969191
Li0.1282In0.0769Ti0.0256P0.1538O0.6154,Li2.5In0.3333In1.1667Ti0.5P3O12,5.7995377,0.0007624974366184056
Li0.1282In0.0769Ti0.0256P0.1538O0.6154,Li2.5In0.5In1.0Ti0.5P3O12,5.7995377,0.0007710712279589312
Li0.1282In0.0769Ti0.0256P0.1538O0.6154,Li2.5In0.6667In0.8333Ti0.5P3O12,5.7995377,5.1457611409676386e-06
Li0.1282In0.0769Ti0.0256P0.1538O0.6154,Li2.5In0.8333In0.6667Ti0.5P3O12,5.7995377,5.6749562399770085e-06
Li0.1282In0.0769Ti0.0256P0.1538O0.6154,Li2.5In1.0In0.5Ti0.5P3O12,5.7995377,6.493787801283944e-06
Li0.1282In0.0769Ti0.0256P0.1538O0.6154,Li2.5In1.1667In0.3333Ti0.5P3O12,5.7995377,8.018299942908286e-06
Li0.1282In0.0769Ti0.0256P0.1538O0.6154,Li2.5In1.3333In0.1667Ti0.5P3O12,5.7995377,1.18118801304566e-05
Li0.1282In0.0769Ti0.0256P0.1538O0.6154,Li2.5In1.5In0.0Ti0.5P3O12,5.7995377,
Li0.1356In0.0847Ti0.0169P0.1525O0.6102,Li2.6667In0.0In1.6667Ti0.3333P3O12,5.7995377,0.000589751403364276
Li0.1356In0.0847Ti0.0169P0.1525O0.6102,Li2.6667In0.1667In1.5Ti0.3333P3O12,5.7995377,0.0005940666630934245
Li0.1356In0.0847Ti0.0169P0.1525O0.6102,Li2.6667In0.5In1.1667Ti0.3333P3O12,5.7995377,0.0006025764174013338
Li0.1356In0.0847Ti0.0169P0.1525O0.6102,Li2.6667In0.6667In1.0Ti0.3333P3O12,5.7995377,0.0006070801601154673
Li0.1356In0.0847Ti0.0169P0.1525O0.6102,Li2.6667In1.0In0.6667Ti0.3333P3O12,5.7995377,9.351154877244629e-06
Li0.1356In0.0847Ti0.0169P0.1525O0.6102,Li2.6667In1.1667In0.5Ti0.3333P3O12,5.7995377,1.050093177840532e-05
Li0.1356In0.0847Ti0.0169P0.1525O0.6102,Li2.6667In1.5In0.1667Ti0.3333P3O12,5.7995377,1.7803736951552715e-05
Li0.1356In0.0847Ti0.0169P0.1525O0.6102,Li2.6667In1.6667In0.0Ti0.3333P3O12,5.7995377,
Li0.1429In0.0924Ti0.0084P0.1513O0.6050,Li2.8333In0.0In1.8333Ti0.1667P3O12,9.531069,0.0004231649279036879
Li0.1429In0.0924Ti0.0084P0.1513O0.6050,Li2.8333In0.3333In1.5Ti0.1667P3O12,9.531069,0.0004288101839445331
Li0.1429In0.0924Ti0.0084P0.1513O0.6050,Li2.8333In0.5In1.3333Ti0.1667P3O12,9.531069,0.0004316908504294513
Li0.1429In0.0924Ti0.0084P0.1513O0.6050,Li2.8333In0.8333In1.0Ti0.1667P3O12,9.531069,0.000437694868491107
Li0.1429In0.0924Ti0.0084P0.1513O0.6050,Li2.8333In1.0In0.8333Ti0.1667P3O12,9.531069,2.2065644704619785e-05
Li0.1429In0.0924Ti0.0084P0.1513O0.6050,Li2.8333In1.3333In0.5Ti0.1667P3O12,9.531069,2.5923430615270854e-05
Li0.1429In0.0924Ti0.0084P0.1513O0.6050,Li2.8333In1.5In0.3333Ti0.1667P3O12,9.531069,3.0366863689320272e-05
Li0.1429In0.0924Ti0.0084P0.1513O0.6050,Li2.8333In1.8333In0.0Ti0.1667P3O12,9.531069,
Li0.1500In0.1000Ti0.0000P0.1500O0.6000,Li3.0In0.0In2.0Ti0.0P3O12,12.877124,
Li0.1500In0.1000Ti0.0000P0.1500O0.6000,Li3.0In0.1667In1.8333Ti0.0P3O12,12.877124,
Li0.1500In0.1000Ti0.0000P0.1500O0.6000,Li3.0In0.3333In1.6667Ti0.0P3O12,12.877124,