formula,original_formula,thermal_expansion,li ion conductivity
Li0.1130Co0.0261Ga0.0348Ti0.0435P0.1565O0.6261,Li2.1667Co0.5Ga0.6667Ti0.8333P3O12,8.099321,1.4907978577197716
Li0.1130Co0.0348Ga0.0261Ti0.0435P0.1565O0.6261,Li2.1667Co0.6667Ga0.5Ti0.8333P3O12,8.099321,1.896732461641676
Li0.1130Co0.0522Ga0.0087Ti0.0435P0.1565O0.6261,Li2.1667Co1.0Ga0.1667Ti0.8333P3O12,8.147218,0.055932037093559525
Li0.1130Co0.0609Ga0.0000Ti0.0435P0.1565O0.6261,Li2.1667Co1.1667Ga0.0Ti0.8333P3O12,8.147218,
Li0.1207Co0.0000Ga0.0690Ti0.0345P0.1552O0.6207,Li2.3333Co0.0Ga1.3333Ti0.6667P3O12,6.7658024,
Li0.1207Co0.0172Ga0.0517Ti0.0345P0.1552O0.6207,Li2.3333Co0.3333Ga1.0Ti0.6667P3O12,8.099321,0.20469237968924064
Li0.1207Co0.0259Ga0.0431Ti0.0345P0.1552O0.6207,Li2.3333Co0.5Ga0.8333Ti0.6667P3O12,8.099321,1.3306043778684753
Li0.1207Co0.0431Ga0.0259Ti0.0345P0.1552O0.6207,Li2.3333Co0.8333Ga0.5Ti0.6667P3O12,8.117204,2.0166244761555747
Li0.1207Co0.0517Ga0.0172Ti0.0345P0.1552O0.6207,Li2.3333Co1.0Ga0.3333Ti0.6667P3O12,8.117204,0.059673909594007965
Li0.1207Co0.0690Ga0.0000Ti0.0345P0.1552O0.6207,Li2.3333Co1.3333Ga0.0Ti0.6667P3O12,8.147218,
Li0.1282Co0.0000Ga0.0769Ti0.0256P0.1538O0.6154,Li2.5Co0.0Ga1.5Ti0.5P3O12,6.7658024,
Li0.1282Co0.0085Ga0.0684Ti0.0256P0.1538O0.6154,Li2.5Co0.1667Ga1.3333Ti0.5P3O12,6.7658024,0.13883545918470927
Li0.1282Co0.0171Ga0.0598Ti0.0256P0.1538O0.6154,Li2.5Co0.3333Ga1.1667Ti0.5P3O12,6.7658024,0.22003939794705082
Li0.1282Co0.0256Ga0.0513Ti0.0256P0.1538O0.6154,Li2.5Co0.5Ga1.0Ti0.5P3O12,8.099321,0.2818640092069452
Li0.1282Co0.0342Ga0.0427Ti0.0256P0.1538O0.6154,Li2.5Co0.6667Ga0.8333Ti0.5P3O12,8.099321,1.4709600234932665
Li0.1282Co0.0427Ga0.0342Ti0.0256P0.1538O0.6154,Li2.5Co0.8333Ga0.6667Ti0.5P3O12,8.117204,1.7515335278618438
Li0.1282Co0.0513Ga0.0256Ti0.0256P0.1538O0.6154,Li2.5Co1.0Ga0.5Ti0.5P3O12,8.117204,0.06820939304203075
Li0.1282Co0.0598Ga0.0171Ti0.0256P0.1538O0.6154,Li2.5Co1.1667Ga0.3333Ti0.5P3O12,8.117204,0.0654771292282774
Li0.1282Co0.0684Ga0.0085Ti0.0256P0.1538O0.6154,Li2.5Co1.3333Ga0.1667Ti0.5P3O12,8.147218,0.05914503552710483
Li0.1282Co0.0769Ga0.0000Ti0.0256P0.1538O0.6154,Li2.5Co1.5Ga0.0Ti0.5P3O12,8.147218,
Li0.1356Co0.0000Ga0.0847Ti0.0169P0.1525O0.6102,Li2.6667Co0.0Ga1.6667Ti0.3333P3O12,6.7658024,
Li0.1356Co0.0085Ga0.0763Ti0.0169P0.1525O0.6102,Li2.6667Co0.1667Ga1.5Ti0.3333P3O12,6.7658024,0.15486892864797613
Li0.1356Co0.0254Ga0.0593Ti0.0169P0.1525O0.6102,Li2.6667Co0.5Ga1.1667Ti0.3333P3O12,6.7658024,0.309991096287764
Li0.1356Co0.0339Ga0.0508Ti0.0169P0.1525O0.6102,Li2.6667Co0.6667Ga1.0Ti0.3333P3O12,8.099321,0.36100402576334484
Li0.1356Co0.0508Ga0.0339Ti0.0169P0.1525O0.6102,Li2.6667Co1.0Ga0.6667Ti0.3333P3O12,8.117204,0.0880101722547305
Li0.1356Co0.0593Ga0.0254Ti0.0169P0.1525O0.6102,Li2.6667Co1.1667Ga0.5Ti0.3333P3O12,8.117204,0.08219970557958142
Li0.1356Co0.0763Ga0.0085Ti0.0169P0.1525O0.6102,Li2.6667Co1.5Ga0.1667Ti0.3333P3O12,8.147218,0.06786039793034092
Li0.1356Co0.0847Ga0.0000Ti0.0169P0.1525O0.6102,Li2.6667Co1.6667Ga0.0Ti0.3333P3O12,8.147218,
Li0.1429Co0.0000Ga0.0924Ti0.0084P0.1513O0.6050,Li2.8333Co0.0Ga1.8333Ti0.1667P3O12,10.497339,
Li0.1429Co0.0168Ga0.0756Ti0.0084P0.1513O0.6050,Li2.8333Co0.3333Ga1.5Ti0.1667P3O12,10.497339,0.2916973220058758
Li0.1429Co0.0252Ga0.0672Ti0.0084P0.1513O0.6050,Li2.8333Co0.5Ga1.3333Ti0.1667P3O12,10.497339,0.3640548012376973
Li0.1429Co0.0420Ga0.0504Ti0.0084P0.1513O0.6050,Li2.8333Co0.8333Ga1.0Ti0.1667P3O12,11.848736,0.44959729226887396
Li0.1429Co0.0504Ga0.0420Ti0.0084P0.1513O0.6050,Li2.8333Co1.0Ga0.8333Ti0.1667P3O12,11.848736,0.13720625924310406
Li0.1429Co0.0672Ga0.0252Ti0.0084P0.1513O0.6050,Li2.8333Co1.3333Ga0.5Ti0.1667P3O12,11.848736,0.12221562470324693
Li0.1429Co0.0756Ga0.0168Ti0.0084P0.1513O0.6050,Li2.8333Co1.5Ga0.3333Ti0.1667P3O12,11.848736,0.1096133841116291
Li0.1429Co0.0924Ga0.0000Ti0.0084P0.1513O0.6050,Li2.8333Co1.8333Ga0.0Ti0.1667P3O12,11.87875,
Li0.1500Co0.0000Ga0.1000Ti0.0000P0.1500O0.6000,Li3.0Co0.0Ga2.0Ti0.0P3O12,13.755412,
Li0.1500Co0.0083Ga0.0917Ti0.0000P0.1500O0.6000,Li3.0Co0.1667Ga1.8333Ti0.0P3O12,13.843395,
Li0.1500Co0.0167Ga0.0833Ti0.0000P0.1500O0.6000,Li3.0Co0.3333Ga1.6667Ti0.0P3O12,13.843395,
Li0.1500Co0.0250Ga0.0750Ti0.0000P0.1500O0.6000,Li3.0Co0.5Ga1.5Ti0.0P3O12,13.843395,
Li0.1500Co0.0333Ga0.0667Ti0.0000P0.1500O0.6000,Li3.0Co0.6667Ga1.3333Ti0.0P3O12,13.843395,
Li0.1500Co0.0417Ga0.0583Ti0.0000P0.1500O0.6000,Li3.0Co0.8333Ga1.1667Ti0.0P3O12,15.194792,
Li0.1500Co0.0500Ga0.0500Ti0.0000P0.1500O0.6000,Li3.0Co1.0Ga1.0Ti0.0P3O12,15.194792,
Li0.1500Co0.0583Ga0.0417Ti0.0000P0.1500O0.6000,Li3.0Co1.1667Ga0.8333Ti0.0P3O12,15.194792,
Li0.1500Co0.0667Ga0.0333Ti0.0000P0.1500O0.6000,Li3.0Co1.3333Ga0.6667Ti0.0P3O12,15.194792,
Li0.1500Co0.0750Ga0.0250Ti0.0000P0.1500O0.6000,Li3.0Co1.5Ga0.5Ti0.0P3O12,15.194792,
Li0.1500Co0.0833Ga0.0167Ti0.0000P0.1500O0.6000,Li3.0Co1.6667Ga0.3333Ti0.0P3O12,15.194792,
Li0.1500Co0.0917Ga0.0083Ti0.0000P0.1500O0.6000,Li3.0Co1.8333Ga0.1667Ti0.0P3O12,15.224806,
Li0.1500Co0.1000Ga0.0000Ti0.0000P0.1500O0.6000,Li3.0Co2.0Ga0.0Ti0.0P3O12,15.21023,
Li0.0556Co0.0000In0.0000Ti0.1111P0.1667O0.6667,Li1.0Co0.0In0.0Ti2.0P3O12,7.7087817,
Li0.0642Co0.0000In0.0092Ti0.1009P0.1651O0.6605,Li1.1667Co0.0In0.1667Ti1.8333P3O12,7.7087817,
Li0.0642Co0.0092In0.0000Ti0.1009P0.1651O0.6605,Li1.1667Co0.1667In0.0Ti1.8333P3O12,7.7087817,
Li0.0727Co0.0000In0.0182Ti0.0909P0.1636O0.6545,Li1.3333Co0.0In0.3333Ti1.6667P3O12,8.017441,
Li0.0727Co0.0182In0.0000Ti0.0909P0.1636O0.6545,Li1.3333Co0.3333In0.0Ti1.6667P3O12,7.7087817,
Li0.0811Co0.0000In0.0270Ti0.0811P0.1622O0.6486,Li1.5Co0.0In0.5Ti1.5P3O12,8.31198,
Li0.0811Co0.0090In0.0180Ti0.0811P0.1622O0.6486,Li1.5Co0.1667In0.3333Ti1.5P3O12,8.036197,1.3738134723962916
Li0.0811Co0.0180In0.0090Ti0.0811P0.1622O0.6486,Li1.5Co0.3333In0.1667Ti1.5P3O12,7.750805,2.349860131815281
Li0.0811Co0.0270In0.0000Ti0.0811P0.1622O0.6486,Li1.5Co0.5In0.0Ti1.5P3O12,7.750805,
Li0.0893Co0.0000In0.0357Ti0.0714P0.1607O0.6429,Li1.6667Co0.0In0.6667Ti1.3333P3O12,8.690509,
Li0.0893Co0.0089In0.0268Ti0.0714P0.1607O0.6429,Li1.6667Co0.1667In0.5Ti1.3333P3O12,8.690509,1.286658972804918
Li0.0893Co0.0268In0.0089Ti0.0714P0.1607O0.6429,Li1.6667Co0.5In0.1667Ti1.3333P3O12,8.129335,2.9769109942284477
Li0.0893Co0.0357In0.0000Ti0.0714P0.1607O0.6429,Li1.6667Co0.6667In0.0Ti1.3333P3O12,8.129335,
Li0.0973Co0.0000In0.0442Ti0.0619P0.1593O0.6372,Li1.8333Co0.0In0.8333Ti1.1667P3O12,8.690509,
Li0.0973Co0.0177In0.0265Ti0.0619P0.1593O0.6372,Li1.8333Co0.3333In0.5Ti1.1667P3O12,8.690509,2.035383277138306
Li0.0973Co0.0265In0.0177Ti0.0619P0.1593O0.6372,Li1.8333Co0.5In0.3333Ti1.1667P3O12,8.414724,2.697438768251133
Li0.0973Co0.0442In0.0000Ti0.0619P0.1593O0.6372,Li1.8333Co0.8333In0.0Ti1.1667P3O12,8.147218,
Li0.1053Co0.0000In0.0526Ti0.0526P0.1579O0.6316,Li2.0Co0.0In1.0Ti1.0P3O12,8.690509,
Li0.1053Co0.0088In0.0439Ti0.0526P0.1579O0.6316,Li2.0Co0.1667In0.8333Ti1.0P3O12,8.690509,1.221431176558368
Li0.1053Co0.0175In0.0351Ti0.0526P0.1579O0.6316,Li2.0Co0.3333In0.6667Ti1.0P3O12,8.690509,1.9994694089707117
Li0.1053Co0.0263In0.0263Ti0.0526P0.1579O0.6316,Li2.0Co0.5In0.5Ti1.0P3O12,8.690509,2.600396297439593
Li0.1053Co0.0351In0.0175Ti0.0526P0.1579O0.6316,Li2.0Co0.6667In0.3333Ti1.0P3O12,8.403259,3.2272275920351006
Li0.1053Co0.0439In0.0088Ti0.0526P0.1579O0.6316,Li2.0Co0.8333In0.1667Ti1.0P3O12,8.147218,4.067044431545304
Li0.1053Co0.0526In0.0000Ti0.0526P0.1579O0.6316,Li2.0Co1.0In0.0Ti1.0P3O12,8.147218,
Li0.1130Co0.0000In0.0609Ti0.0435P0.1565O0.6261,Li2.1667Co0.0In1.1667Ti0.8333P3O12,8.690509,
Li0.1130Co0.0087In0.0522Ti0.0435P0.1565O0.6261,Li2.1667Co0.1667In1.0Ti0.8333P3O12,8.690509,0.03207766133916966
Li0.1130Co0.0261In0.0348Ti0.0435P0.1565O0.6261,Li2.1667Co0.5In0.6667Ti0.8333P3O12,8.690509,0.5148278756591368
Li0.1130Co0.0348In0.0261Ti0.0435P0.1565O0.6261,Li2.1667Co0.6667In0.5Ti0.8333P3O12,8.690509,0.659726352283023
Li0.1130Co0.0522In0.0087Ti0.0435P0.1565O0.6261,Li2.1667Co1.0In0.1667Ti0.8333P3O12,8.147218,0.052854685865329896
Li0.1130Co0.0609In0.0000Ti0.0435P0.1565O0.6261,Li2.1667Co1.1667In0.0Ti0.8333P3O12,8.147218,
Li0.1207Co0.0000In0.0690Ti0.0345P0.1552O0.6207,Li2.3333Co0.0In1.3333Ti0.6667P3O12,8.690509,
Li0.1207Co0.0172In0.0517Ti0.0345P0.1552O0.6207,Li2.3333Co0.3333In1.0Ti0.6667P3O12,8.690509,0.05278915010488341
Li0.1207Co0.0259In0.0431Ti0.0345P0.1552O0.6207,Li2.3333Co0.5In0.8333Ti0.6667P3O12,8.690509,0.4529243273310439
Li0.1207Co0.0431In0.0259Ti0.0345P0.1552O0.6207,Li2.3333Co0.8333In0.5Ti0.6667P3O12,8.70839,0.6722172331939191
Li0.1207Co0.0517In0.0172Ti0.0345P0.1552O0.6207,Li2.3333Co1.0In0.3333Ti0.6667P3O12,8.421141,0.051346204598320365
Li0.1207Co0.0690In0.0000Ti0.0345P0.1552O0.6207,Li2.3333Co1.3333In0.0Ti0.6667P3O12,8.147218,
Li0.1282Co0.0000In0.0769Ti0.0256P0.1538O0.6154,Li2.5Co0.0In1.5Ti0.5P3O12,5.7995377,
Li0.1282Co0.0085In0.0684Ti0.0256P0.1538O0.6154,Li2.5Co0.1667In1.3333Ti0.5P3O12,8.690509,0.03883965468191623
Li0.1282Co0.0171In0.0598Ti0.0256P0.1538O0.6154,Li2.5Co0.3333In1.1667Ti0.5P3O12,8.690509,0.05684023149187967
Li0.1282Co0.0256In0.0513Ti0.0256P0.1538O0.6154,Li2.5Co0.5In1.0Ti0.5P3O12,8.690509,0.06924543677783926
Li0.1282Co0.0342In0.0427Ti0.0256P0.1538O0.6154,Li2.5Co0.6667In0.8333Ti0.5P3O12,8.690509,0.481970384403883
Li0.1282Co0.0427In0.0342Ti0.0256P0.1538O0.6154,Li2.5Co0.8333In0.6667Ti0.5P3O12,8.70839,0.5613882092833937
Li0.1282Co0.0513In0.0256Ti0.0256P0.1538O0.6154,Li2.5Co1.0In0.5Ti0.5P3O12,8.70839,0.04646089322608891
Li0.1282Co0.0598In0.0171Ti0.0256P0.1538O0.6154,Li2.5Co1.1667In0.3333Ti0.5P3O12,8.421141,0.05165278682543074
Li0.1282Co0.0684In0.0085Ti0.0256P0.1538O0.6154,Li2.5Co1.3333In0.1667Ti0.5P3O12,8.147218,0.0533837850305831
Li0.1282Co0.0769In0.0000Ti0.0256P0.1538O0.6154,Li2.5Co1.5In0.0Ti0.5P3O12,8.147218,
Li0.1356Co0.0000In0.0847Ti0.0169P0.1525O0.6102,Li2.6667Co0.0In1.6667Ti0.3333P3O12,5.7995377,
Li0.1356Co0.0085In0.0763Ti0.0169P0.1525O0.6102,Li2.6667Co0.1667In1.5Ti0.3333P3O12,8.690509,0.04390068664101289
Li0.1356Co0.0254In0.0593Ti0.0169P0.1525O0.6102,Li2.6667Co0.5In1.1667Ti0.3333P3O12,8.690509,0.07543684281430894
Li0.1356Co0.0339In0.0508Ti0.0169P0.1525O0.6102,Li2.6667Co0.6667In1.0Ti0.3333P3O12,8.690509,0.08820103288487136
Li0.1356Co0.0508In0.0339Ti0.0169P0.1525O0.6102,Li2.6667Co1.0In0.6667Ti0.3333P3O12,8.70839,0.04272869824685622
Li0.1356Co0.0593In0.0254Ti0.0169P0.1525O0.6102,Li2.6667Co1.1667In0.5Ti0.3333P3O12,8.70839,0.049146657671077475
Li0.1356Co0.0763In0.0085Ti0.0169P0.1525O0.6102,Li2.6667Co1.5In0.1667Ti0.3333P3O12,8.147218,0.05582840996578417
Li0.1356Co0.0847In0.0000Ti0.0169P0.1525O0.6102,Li2.6667Co1.6667In0.0Ti0.3333P3O12,8.147218,
Li0.1429Co0.0000In0.0924Ti0.0084P0.1513O0.6050,Li2.8333Co0.0In1.8333Ti0.1667P3O12,9.531069,
Li0.1429Co0.0168In0.0756Ti0.0084P0.1513O0.6050,Li2.8333Co0.3333In1.5Ti0.1667P3O12,12.422039,0.07436643985450027
Li0.1429Co0.0252In0.0672Ti0.0084P0.1513O0.6050,Li2.8333Co0.5In1.3333Ti0.1667P3O12,12.422039,0.08965356776558674
Li0.1429Co0.0420In0.0504Ti0.0084P0.1513O0.6050,Li2.8333Co0.8333In1.0Ti0.1667P3O12,12.43992,0.11923227841864581
Li0.1429Co0.0504In0.0420Ti0.0084P0.1513O0.6050,Li2.8333Co1.0In0.8333Ti0.1667P3O12,12.43992,0.04485025018693446
Li0.1429Co0.0672In0.0252Ti0.0084P0.1513O0.6050,Li2.8333Co1.3333In0.5Ti0.1667P3O12,12.43992,0.05419975769633335
Li0.1429Co0.0756In0.0168Ti0.0084P0.1513O0.6050,Li2.8333Co1.5In0.3333Ti0.1667P3O12,12.152672,0.05866978503873516
Li0.1429Co0.0924In0.0000Ti0.0084P0.1513O0.6050,Li2.8333Co1.8333In0.0Ti0.1667P3O12,11.87875,
Li0.1500Co0.0000In0.1000Ti0.0000P0.1500O0.6000,Li3.0Co0.0In2.0Ti0.0P3O12,12.877124,
Li0.1500Co0.0083In0.0917Ti0.0000P0.1500O0.6000,Li3.0Co0.1667In1.8333Ti0.0P3O12,12.877124,
Li0.1500Co0.0167In0.0833Ti0.0000P0.1500O0.6000,Li3.0Co0.3333In1.6667Ti0.0P3O12,12.877124,
Li0.1500Co0.0250In0.0750Ti0.0000P0.1500O0.6000,Li3.0Co0.5In1.5Ti0.0P3O12,15.768095,
Li0.1500Co0.0333In0.0667Ti0.0000P0.1500O0.6000,Li3.0Co0.6667In1.3333Ti0.0P3O12,15.768095,
Li0.1500Co0.0417In0.0583Ti0.0000P0.1500O0.6000,Li3.0Co0.8333In1.1667Ti0.0P3O12,15.785976,
Li0.1500Co0.0500In0.0500Ti0.0000P0.1500O0.6000,Li3.0Co1.0In1.0Ti0.0P3O12,15.785976,
Li0.1500Co0.0583In0.0417Ti0.0000P0.1500O0.6000,Li3.0Co1.1667In0.8333Ti0.0P3O12,15.785976,
Li0.1500Co0.0667In0.0333Ti0.0000P0.1500O0.6000,Li3.0Co1.3333In0.6667Ti0.0P3O12,15.785976,
Li0.1500Co0.0750In0.0250Ti0.0000P0.1500O0.6000,Li3.0Co1.5In0.5Ti0.0P3O12,15.785976,
Li0.1500Co0.0833In0.0167Ti0.0000P0.1500O0.6000,Li3.0Co1.6667In0.3333Ti0.0P3O12,15.498728,
Li0.1500Co0.0917In0.0083Ti0.0000P0.1500O0.6000,Li3.0Co1.8333In0.1667Ti0.0P3O12,15.224806,
Li0.1500Co0.1000In0.0000Ti0.0000P0.1500O0.6000,Li3.0Co2.0In0.0Ti0.0P3O12,15.21023,
Li0.0556Co0.0000Mn0.0000Ti0.1111P0.1667O0.6667,Li1.0Co0.0Mn0.0Ti2.0P3O12,7.7087817,
Li0.0642Co0.0000Mn0.0092Ti0.1009P0.1651O0.6605,Li1.1667Co0.0Mn0.1667Ti1.8333P3O12,7.7087817,
Li0.0642Co0.0092Mn0.0000Ti0.1009P0.1651O0.6605,Li1.1667Co0.1667Mn0.0Ti1.8333P3O12,7.7087817,
Li0.0727Co0.0000Mn0.0182Ti0.0909P0.1636O0.6545,Li1.3333Co0.0Mn0.3333Ti1.6667P3O12,7.7087817,
Li0.0727Co0.0182Mn0.0000Ti0.0909P0.1636O0.6545,Li1.3333Co0.3333Mn0.0Ti1.6667P3O12,7.7087817,
Li0.0811Co0.0000Mn0.0270Ti0.0811P0.1622O0.6486,Li1.5Co0.0Mn0.5Ti1.5P3O12,7.750805,
Li0.0811Co0.0090Mn0.0180Ti0.0811P0.1622O0.6486,Li1.5Co0.1667Mn0.3333Ti1.5P3O12,7.750805,0.4547750402822731
Li0.0811Co0.0180Mn0.0090Ti0.0811P0.1622O0.6486,Li1.5Co0.3333Mn0.1667Ti1.5P3O12,7.750805,0.7796365571737999
Li0.0811Co0.0270Mn0.0000Ti0.0811P0.1622O0.6486,Li1.5Co0.5Mn0.0Ti1.5P3O12,7.750805,
Li0.0893Co0.0000Mn0.0357Ti0.0714P0.1607O0.6429,Li1.6667Co0.0Mn0.6667Ti1.3333P3O12,8.129335,
Li0.0893Co0.0089Mn0.0268Ti0.0714P0.1607O0.6429,Li1.6667Co0.1667Mn0.5Ti1.3333P3O12,8.129335,0.4351409073600605
Li0.0893Co0.0268Mn0.0089Ti0.0714P0.1607O0.6429,Li1.6667Co0.5Mn0.1667Ti1.3333P3O12,8.129335,0.981403302312995
Li0.0893Co0.0357Mn0.0000Ti0.0714P0.1607O0.6429,Li1.6667Co0.6667Mn0.0Ti1.3333P3O12,8.129335,
Li0.0973Co0.0000Mn0.0442Ti0.0619P0.1593O0.6372,Li1.8333Co0.0Mn0.8333Ti1.1667P3O12,7.1790795,
Li0.0973Co0.0177Mn0.0265Ti0.0619P0.1593O0.6372,Li1.8333Co0.3333Mn0.5Ti1.1667P3O12,8.129335,0.6825895150625906
Li0.0973Co0.0265Mn0.0177Ti0.0619P0.1593O0.6372,Li1.8333Co0.5Mn0.3333Ti1.1667P3O12,8.129335,0.9029331024614213
Li0.0973Co0.0442Mn0.0000Ti0.0619P0.1593O0.6372,Li1.8333Co0.8333Mn0.0Ti1.1667P3O12,8.147218,
Li0.1053Co0.0000Mn0.0526Ti0.0526P0.1579O0.6316,Li2.0Co0.0Mn1.0Ti1.0P3O12,7.5443654,
Li0.1053Co0.0088Mn0.0439Ti0.0526P0.1579O0.6316,Li2.0Co0.1667Mn0.8333Ti1.0P3O12,7.1790795,0.4030565581779401
Li0.1053Co0.0175Mn0.0351Ti0.0526P0.1579O0.6316,Li2.0Co0.3333Mn0.6667Ti1.0P3O12,8.129335,0.6669094586832256
Li0.1053Co0.0263Mn0.0263Ti0.0526P0.1579O0.6316,Li2.0Co0.5Mn0.5Ti1.0P3O12,8.129335,0.8610461059542373
Li0.1053Co0.0351Mn0.0175Ti0.0526P0.1579O0.6316,Li2.0Co0.6667Mn0.3333Ti1.0P3O12,8.129335,1.053395241043058
Li0.1053Co0.0439Mn0.0088Ti0.0526P0.1579O0.6316,Li2.0Co0.8333Mn0.1667Ti1.0P3O12,8.147218,1.2506156555609644
Li0.1053Co0.0526Mn0.0000Ti0.0526P0.1579O0.6316,Li2.0Co1.0Mn0.0Ti1.0P3O12,8.147218,
Li0.1130Co0.0000Mn0.0609Ti0.0435P0.1565O0.6261,Li2.1667Co0.0Mn1.1667Ti0.8333P3O12,7.5443654,
Li0.1130Co0.0087Mn0.0522Ti0.0435P0.1565O0.6261,Li2.1667Co0.1667Mn1.0Ti0.8333P3O12,7.5443654,0.34060844453015504
Li0.1130Co0.0261Mn0.0348Ti0.0435P0.1565O0.6261,Li2.1667Co0.5Mn0.6667Ti0.8333P3O12,8.129335,0.1057536413259048
Li0.1130Co0.0348Mn0.0261Ti0.0435P0.1565O0.6261,Li2.1667Co0.6667Mn0.5Ti0.8333P3O12,8.129335,0.12067103841512107
Li0.1130Co0.0522Mn0.0087Ti0.0435P0.1565O0.6261,Li2.1667Co1.0Mn0.1667Ti0.8333P3O12,8.147218,0.11421196432393274
Li0.1130Co0.0609Mn0.0000Ti0.0435P0.1565O0.6261,Li2.1667Co1.1667Mn0.0Ti0.8333P3O12,8.147218,
Li0.1207Co0.0000Mn0.0690Ti0.0345P0.1552O0.6207,Li2.3333Co0.0Mn1.3333Ti0.6667P3O12,7.5443654,
Li0.1207Co0.0172Mn0.0517Ti0.0345P0.1552O0.6207,Li2.3333Co0.3333Mn1.0Ti0.6667P3O12,7.5443654,0.5687778247802437
Li0.1207Co0.0259Mn0.0431Ti0.0345P0.1552O0.6207,Li2.3333Co0.5Mn0.8333Ti0.6667P3O12,7.1790795,0.09515616856974837
Li0.1207Co0.0431Mn0.0259Ti0.0345P0.1552O0.6207,Li2.3333Co0.8333Mn0.5Ti0.6667P3O12,8.147218,0.12020246614472865
Li0.1207Co0.0517Mn0.0172Ti0.0345P0.1552O0.6207,Li2.3333Co1.0Mn0.3333Ti0.6667P3O12,8.147218,0.2027967342364443
Li0.1207Co0.0690Mn0.0000Ti0.0345P0.1552O0.6207,Li2.3333Co1.3333Mn0.0Ti0.6667P3O12,8.147218,
Li0.1282Co0.0000Mn0.0769Ti0.0256P0.1538O0.6154,Li2.5Co0.0Mn1.5Ti0.5P3O12,7.5443654,
Li0.1282Co0.0085Mn0.0684Ti0.0256P0.1538O0.6154,Li2.5Co0.1667Mn1.3333Ti0.5P3O12,7.5443654,0.38956055868333606
Li0.1282Co0.0171Mn0.0598Ti0.0256P0.1538O0.6154,Li2.5Co0.3333Mn1.1667Ti0.5P3O12,7.5443654,0.6139768254372208
Li0.1282Co0.0256Mn0.0513Ti0.0256P0.1538O0.6154,Li2.5Co0.5Mn1.0Ti0.5P3O12,7.5443654,0.7771120048385118
Li0.1282Co0.0342Mn0.0427Ti0.0256P0.1538O0.6154,Li2.5Co0.6667Mn0.8333Ti0.5P3O12,7.1790795,0.09704364199508853
Li0.1282Co0.0427Mn0.0342Ti0.0256P0.1538O0.6154,Li2.5Co0.8333Mn0.6667Ti0.5P3O12,8.147218,0.10783823696041112
Li0.1282Co0.0513Mn0.0256Ti0.0256P0.1538O0.6154,Li2.5Co1.0Mn0.5Ti0.5P3O12,8.147218,0.2717350682004242
Li0.1282Co0.0598Mn0.0171Ti0.0256P0.1538O0.6154,Li2.5Co1.1667Mn0.3333Ti0.5P3O12,8.147218,0.22304316030879728
Li0.1282Co0.0684Mn0.0085Ti0.0256P0.1538O0.6154,Li2.5Co1.3333Mn0.1667Ti0.5P3O12,8.147218,0.1419422773972547
Li0.1282Co0.0769Mn0.0000Ti0.0256P0.1538O0.6154,Li2.5Co1.5Mn0.0Ti0.5P3O12,8.147218,
Li0.1356Co0.0000Mn0.0847Ti0.0169P0.1525O0.6102,Li2.6667Co0.0Mn1.6667Ti0.3333P3O12,7.480082,
Li0.1356Co0.0085Mn0.0763Ti0.0169P0.1525O0.6102,Li2.6667Co0.1667Mn1.5Ti0.3333P3O12,7.5443654,0.439528954474714
Li0.1356Co0.0254Mn0.0593Ti0.0169P0.1525O0.6102,Li2.6667Co0.5Mn1.1667Ti0.3333P3O12,7.5443654,0.8446554935281098
Li0.1356Co0.0339Mn0.0508Ti0.0169P0.1525O0.6102,Li2.6667Co0.6667Mn1.0Ti0.3333P3O12,7.5443654,0.959857102907576
Li0.1356Co0.0508Mn0.0339Ti0.0169P0.1525O0.6102,Li2.6667Co1.0Mn0.6667Ti0.3333P3O12,8.147218,0.34807700143379733
Li0.1356Co0.0593Mn0.0254Ti0.0169P0.1525O0.6102,Li2.6667Co1.1667Mn0.5Ti0.3333P3O12,8.147218,0.30995178801217343
Li0.1356Co0.0763Mn0.0085Ti0.0169P0.1525O0.6102,Li2.6667Co1.5Mn0.1667Ti0.3333P3O12,8.147218,0.17292188098740996
Li0.1356Co0.0847Mn0.0000Ti0.0169P0.1525O0.6102,Li2.6667Co1.6667Mn0.0Ti0.3333P3O12,8.147218,
Li0.1429Co0.0000Mn0.0924Ti0.0084P0.1513O0.6050,Li2.8333Co0.0Mn1.8333Ti0.1667P3O12,9.358569,
Li0.1429Co0.0168Mn0.0756Ti0.0084P0.1513O0.6050,Li2.8333Co0.3333Mn1.5Ti0.1667P3O12,9.4228525,0.7874354488356018
Li0.1429Co0.0252Mn0.0672Ti0.0084P0.1513O0.6050,Li2.8333Co0.5Mn1.3333Ti0.1667P3O12,9.4228525,0.9589380312869991
Li0.1429Co0.0420Mn0.0504Ti0.0084P0.1513O0.6050,Li2.8333Co0.8333Mn1.0Ti0.1667P3O12,9.440734,1.1744059908780644
Li0.1429Co0.0504Mn0.0420Ti0.0084P0.1513O0.6050,Li2.8333Co1.0Mn0.8333Ti0.1667P3O12,9.07545,0.45120745646201715
Li0.1429Co0.0672Mn0.0252Ti0.0084P0.1513O0.6050,Li2.8333Co1.3333Mn0.5Ti0.1667P3O12,11.87875,0.3809353849570937
Li0.1429Co0.0756Mn0.0168Ti0.0084P0.1513O0.6050,Li2.8333Co1.5Mn0.3333Ti0.1667P3O12,11.87875,0.33114056007954235
Li0.1429Co0.0924Mn0.0000Ti0.0084P0.1513O0.6050,Li2.8333Co1.8333Mn0.0Ti0.1667P3O12,11.87875,
Li0.1500Co0.0000Mn0.1000Ti0.0000P0.1500O0.6000,Li3.0Co0.0Mn2.0Ti0.0P3O12,12.704627,
Li0.1500Co0.0083Mn0.0917Ti0.0000P0.1500O0.6000,Li3.0Co0.1667Mn1.8333Ti0.0P3O12,12.704627,
Li0.1500Co0.0167Mn0.0833Ti0.0000P0.1500O0.6000,Li3.0Co0.3333Mn1.6667Ti0.0P3O12,12.704627,
Li0.1500Co0.0250Mn0.0750Ti0.0000P0.1500O0.6000,Li3.0Co0.5Mn1.5Ti0.0P3O12,12.76891,
Li0.1500Co0.0333Mn0.0667Ti0.0000P0.1500O0.6000,Li3.0Co0.6667Mn1.3333Ti0.0P3O12,12.76891,
Li0.1500Co0.0417Mn0.0583Ti0.0000P0.1500O0.6000,Li3.0Co0.8333Mn1.1667Ti0.0P3O12,12.786792,
Li0.1500Co0.0500Mn0.0500Ti0.0000P0.1500O0.6000,Li3.0Co1.0Mn1.0Ti0.0P3O12,12.786792,
Li0.1500Co0.0583Mn0.0417Ti0.0000P0.1500O0.6000,Li3.0Co1.1667Mn0.8333Ti0.0P3O12,12.421507,
Li0.1500Co0.0667Mn0.0333Ti0.0000P0.1500O0.6000,Li3.0Co1.3333Mn0.6667Ti0.0P3O12,15.224806,
Li0.1500Co0.0750Mn0.0250Ti0.0000P0.1500O0.6000,Li3.0Co1.5Mn0.5Ti0.0P3O12,15.224806,
Li0.1500Co0.0833Mn0.0167Ti0.0000P0.1500O0.6000,Li3.0Co1.6667Mn0.3333Ti0.0P3O12,15.224806,
Li0.1500Co0.0917Mn0.0083Ti0.0000P0.1500O0.6000,Li3.0Co1.8333Mn0.1667Ti0.0P3O12,15.224806,
Li0.1500Co0.1000Mn0.0000Ti0.0000P0.1500O0.6000,Li3.0Co2.0Mn0.0Ti0.0P3O12,15.21023,
Li0.0556Co0.0000Ni0.0000Ti0.1111P0.1667O0.6667,Li1.0Co0.0Ni0.0Ti2.0P3O12,7.7087817,