formula,original_formula,thermal_expansion,li ion conductivity
Li0.1282In0.0256B0.0513Ti0.0256P0.1538O0.6154,Li2.5In0.5B1.0Ti0.5P3O12,8.690509,0.06674694901393803
Li0.1282In0.0342B0.0427Ti0.0256P0.1538O0.6154,Li2.5In0.6667B0.8333Ti0.5P3O12,8.690509,0.026312909801215128
Li0.1282In0.0427B0.0342Ti0.0256P0.1538O0.6154,Li2.5In0.8333B0.6667Ti0.5P3O12,8.690509,0.029226924588465354
Li0.1282In0.0513B0.0256Ti0.0256P0.1538O0.6154,Li2.5In1.0B0.5Ti0.5P3O12,8.690509,1.3335485177296944
Li0.1282In0.0598B0.0171Ti0.0256P0.1538O0.6154,Li2.5In1.1667B0.3333Ti0.5P3O12,8.690509,1.0138497000218183
Li0.1282In0.0684B0.0085Ti0.0256P0.1538O0.6154,Li2.5In1.3333B0.1667Ti0.5P3O12,8.690509,0.5988456524841427
Li0.1282In0.0769B0.0000Ti0.0256P0.1538O0.6154,Li2.5In1.5B0.0Ti0.5P3O12,5.7995377,
Li0.1356In0.0000B0.0847Ti0.0169P0.1525O0.6102,Li2.6667In0.0B1.6667Ti0.3333P3O12,8.129335,
Li0.1356In0.0085B0.0763Ti0.0169P0.1525O0.6102,Li2.6667In0.1667B1.5Ti0.3333P3O12,8.129335,0.061268219557152837
Li0.1356In0.0254B0.0593Ti0.0169P0.1525O0.6102,Li2.6667In0.5B1.1667Ti0.3333P3O12,8.690509,0.07065750322366439
Li0.1356In0.0339B0.0508Ti0.0169P0.1525O0.6102,Li2.6667In0.6667B1.0Ti0.3333P3O12,8.690509,0.0736615589690661
Li0.1356In0.0508B0.0339Ti0.0169P0.1525O0.6102,Li2.6667In1.0B0.6667Ti0.3333P3O12,8.690509,1.934542067091855
Li0.1356In0.0593B0.0254Ti0.0169P0.1525O0.6102,Li2.6667In1.1667B0.5Ti0.3333P3O12,8.690509,1.6201007982477464
Li0.1356In0.0763B0.0085Ti0.0169P0.1525O0.6102,Li2.6667In1.5B0.1667Ti0.3333P3O12,8.690509,0.7170655728163954
Li0.1356In0.0847B0.0000Ti0.0169P0.1525O0.6102,Li2.6667In1.6667B0.0Ti0.3333P3O12,5.7995377,
Li0.1429In0.0000B0.0924Ti0.0084P0.1513O0.6050,Li2.8333In0.0B1.8333Ti0.1667P3O12,11.860868,
Li0.1429In0.0168B0.0756Ti0.0084P0.1513O0.6050,Li2.8333In0.3333B1.5Ti0.1667P3O12,12.13479,0.07647502893924639
Li0.1429In0.0252B0.0672Ti0.0084P0.1513O0.6050,Li2.8333In0.5B1.3333Ti0.1667P3O12,12.422039,0.08175183695644048
Li0.1429In0.0420B0.0504Ti0.0084P0.1513O0.6050,Li2.8333In0.8333B1.0Ti0.1667P3O12,12.422039,0.08995755975918841
Li0.1429In0.0504B0.0420Ti0.0084P0.1513O0.6050,Li2.8333In1.0B0.8333Ti0.1667P3O12,12.422039,2.918437223929174
Li0.1429In0.0672B0.0252Ti0.0084P0.1513O0.6050,Li2.8333In1.3333B0.5Ti0.1667P3O12,12.422039,2.1762568043214188
Li0.1429In0.0756B0.0168Ti0.0084P0.1513O0.6050,Li2.8333In1.5B0.3333Ti0.1667P3O12,12.422039,1.6686953740601222
Li0.1429In0.0924B0.0000Ti0.0084P0.1513O0.6050,Li2.8333In1.8333B0.0Ti0.1667P3O12,9.531069,
Li0.1500In0.0000B0.1000Ti0.0000P0.1500O0.6000,Li3.0In0.0B2.0Ti0.0P3O12,15.206924,
Li0.1500In0.0083B0.0917Ti0.0000P0.1500O0.6000,Li3.0In0.1667B1.8333Ti0.0P3O12,15.206924,
Li0.1500In0.0167B0.0833Ti0.0000P0.1500O0.6000,Li3.0In0.3333B1.6667Ti0.0P3O12,15.480846,
Li0.1500In0.0250B0.0750Ti0.0000P0.1500O0.6000,Li3.0In0.5B1.5Ti0.0P3O12,15.768095,
Li0.1500In0.0333B0.0667Ti0.0000P0.1500O0.6000,Li3.0In0.6667B1.3333Ti0.0P3O12,15.768095,
Li0.1500In0.0417B0.0583Ti0.0000P0.1500O0.6000,Li3.0In0.8333B1.1667Ti0.0P3O12,15.768095,
Li0.1500In0.0500B0.0500Ti0.0000P0.1500O0.6000,Li3.0In1.0B1.0Ti0.0P3O12,15.768095,
Li0.1500In0.0583B0.0417Ti0.0000P0.1500O0.6000,Li3.0In1.1667B0.8333Ti0.0P3O12,15.768095,
Li0.1500In0.0667B0.0333Ti0.0000P0.1500O0.6000,Li3.0In1.3333B0.6667Ti0.0P3O12,15.768095,
Li0.1500In0.0750B0.0250Ti0.0000P0.1500O0.6000,Li3.0In1.5B0.5Ti0.0P3O12,15.768095,
Li0.1500In0.0833B0.0167Ti0.0000P0.1500O0.6000,Li3.0In1.6667B0.3333Ti0.0P3O12,12.877124,
Li0.1500In0.0917B0.0083Ti0.0000P0.1500O0.6000,Li3.0In1.8333B0.1667Ti0.0P3O12,12.877124,
Li0.1500In0.1000B0.0000Ti0.0000P0.1500O0.6000,Li3.0In2.0B0.0Ti0.0P3O12,12.877124,
Li0.0556In0.0000Co0.0000Ti0.1111P0.1667O0.6667,Li1.0In0.0Co0.0Ti2.0P3O12,7.7087817,
Li0.0642In0.0000Co0.0092Ti0.1009P0.1651O0.6605,Li1.1667In0.0Co0.1667Ti1.8333P3O12,7.7087817,
Li0.0642In0.0092Co0.0000Ti0.1009P0.1651O0.6605,Li1.1667In0.1667Co0.0Ti1.8333P3O12,7.7087817,
Li0.0727In0.0000Co0.0182Ti0.0909P0.1636O0.6545,Li1.3333In0.0Co0.3333Ti1.6667P3O12,7.7087817,
Li0.0727In0.0182Co0.0000Ti0.0909P0.1636O0.6545,Li1.3333In0.3333Co0.0Ti1.6667P3O12,8.017441,
Li0.0811In0.0000Co0.0270Ti0.0811P0.1622O0.6486,Li1.5In0.0Co0.5Ti1.5P3O12,7.750805,
Li0.0811In0.0090Co0.0180Ti0.0811P0.1622O0.6486,Li1.5In0.1667Co0.3333Ti1.5P3O12,7.750805,0.0725565735192577
Li0.0811In0.0180Co0.0090Ti0.0811P0.1622O0.6486,Li1.5In0.3333Co0.1667Ti1.5P3O12,8.036197,0.08839686886587557
Li0.0811In0.0270Co0.0000Ti0.0811P0.1622O0.6486,Li1.5In0.5Co0.0Ti1.5P3O12,8.31198,
Li0.0893In0.0000Co0.0357Ti0.0714P0.1607O0.6429,Li1.6667In0.0Co0.6667Ti1.3333P3O12,8.129335,
Li0.0893In0.0089Co0.0268Ti0.0714P0.1607O0.6429,Li1.6667In0.1667Co0.5Ti1.3333P3O12,8.129335,0.06722478624977879
Li0.0893In0.0268Co0.0089Ti0.0714P0.1607O0.6429,Li1.6667In0.5Co0.1667Ti1.3333P3O12,8.690509,0.07888979308888784
Li0.0893In0.0357Co0.0000Ti0.0714P0.1607O0.6429,Li1.6667In0.6667Co0.0Ti1.3333P3O12,8.690509,
Li0.0973In0.0000Co0.0442Ti0.0619P0.1593O0.6372,Li1.8333In0.0Co0.8333Ti1.1667P3O12,8.147218,
Li0.0973In0.0177Co0.0265Ti0.0619P0.1593O0.6372,Li1.8333In0.3333Co0.5Ti1.1667P3O12,8.414724,0.07135933184813792
Li0.0973In0.0265Co0.0177Ti0.0619P0.1593O0.6372,Li1.8333In0.5Co0.3333Ti1.1667P3O12,8.690509,0.0713124942919245
Li0.0973In0.0442Co0.0000Ti0.0619P0.1593O0.6372,Li1.8333In0.8333Co0.0Ti1.1667P3O12,8.690509,
Li0.1053In0.0000Co0.0526Ti0.0526P0.1579O0.6316,Li2.0In0.0Co1.0Ti1.0P3O12,8.147218,
Li0.1053In0.0088Co0.0439Ti0.0526P0.1579O0.6316,Li2.0In0.1667Co0.8333Ti1.0P3O12,8.147218,0.059422844620538304
Li0.1053In0.0175Co0.0351Ti0.0526P0.1579O0.6316,Li2.0In0.3333Co0.6667Ti1.0P3O12,8.403259,0.06497282392631597
Li0.1053In0.0263Co0.0263Ti0.0526P0.1579O0.6316,Li2.0In0.5Co0.5Ti1.0P3O12,8.690509,0.06468568506790746
Li0.1053In0.0351Co0.0175Ti0.0526P0.1579O0.6316,Li2.0In0.6667Co0.3333Ti1.0P3O12,8.690509,0.0633582410681501
Li0.1053In0.0439Co0.0088Ti0.0526P0.1579O0.6316,Li2.0In0.8333Co0.1667Ti1.0P3O12,8.690509,0.06321405864405817
Li0.1053In0.0526Co0.0000Ti0.0526P0.1579O0.6316,Li2.0In1.0Co0.0Ti1.0P3O12,8.690509,
Li0.1130In0.0000Co0.0609Ti0.0435P0.1565O0.6261,Li2.1667In0.0Co1.1667Ti0.8333P3O12,8.147218,
Li0.1130In0.0087Co0.0522Ti0.0435P0.1565O0.6261,Li2.1667In0.1667Co1.0Ti0.8333P3O12,8.147218,0.052854685865329896
Li0.1130In0.0261Co0.0348Ti0.0435P0.1565O0.6261,Li2.1667In0.5Co0.6667Ti0.8333P3O12,8.690509,3.130832460929619e-06
Li0.1130In0.0348Co0.0261Ti0.0435P0.1565O0.6261,Li2.1667In0.6667Co0.5Ti0.8333P3O12,8.690509,4.143567518803412e-06
Li0.1130In0.0522Co0.0087Ti0.0435P0.1565O0.6261,Li2.1667In1.0Co0.1667Ti0.8333P3O12,8.690509,0.03207766133916966
Li0.1130In0.0609Co0.0000Ti0.0435P0.1565O0.6261,Li2.1667In1.1667Co0.0Ti0.8333P3O12,8.690509,
Li0.1207In0.0000Co0.0690Ti0.0345P0.1552O0.6207,Li2.3333In0.0Co1.3333Ti0.6667P3O12,8.147218,
Li0.1207In0.0172Co0.0517Ti0.0345P0.1552O0.6207,Li2.3333In0.3333Co1.0Ti0.6667P3O12,8.421141,0.051346204598320365
Li0.1207In0.0259Co0.0431Ti0.0345P0.1552O0.6207,Li2.3333In0.5Co0.8333Ti0.6667P3O12,8.70839,2.0850047850055377e-06
Li0.1207In0.0431Co0.0259Ti0.0345P0.1552O0.6207,Li2.3333In0.8333Co0.5Ti0.6667P3O12,8.690509,3.3229912522255846e-06
Li0.1207In0.0517Co0.0172Ti0.0345P0.1552O0.6207,Li2.3333In1.0Co0.3333Ti0.6667P3O12,8.690509,0.05278915010488341
Li0.1207In0.0690Co0.0000Ti0.0345P0.1552O0.6207,Li2.3333In1.3333Co0.0Ti0.6667P3O12,8.690509,
Li0.1282In0.0000Co0.0769Ti0.0256P0.1538O0.6154,Li2.5In0.0Co1.5Ti0.5P3O12,8.147218,
Li0.1282In0.0085Co0.0684Ti0.0256P0.1538O0.6154,Li2.5In0.1667Co1.3333Ti0.5P3O12,8.147218,0.0533837850305831
Li0.1282In0.0171Co0.0598Ti0.0256P0.1538O0.6154,Li2.5In0.3333Co1.1667Ti0.5P3O12,8.421141,0.05165278682543074
Li0.1282In0.0256Co0.0513Ti0.0256P0.1538O0.6154,Li2.5In0.5Co1.0Ti0.5P3O12,8.70839,0.04646089322608891
Li0.1282In0.0342Co0.0427Ti0.0256P0.1538O0.6154,Li2.5In0.6667Co0.8333Ti0.5P3O12,8.70839,1.639736756632657e-06
Li0.1282In0.0427Co0.0342Ti0.0256P0.1538O0.6154,Li2.5In0.8333Co0.6667Ti0.5P3O12,8.690509,1.960780458470136e-06
Li0.1282In0.0513Co0.0256Ti0.0256P0.1538O0.6154,Li2.5In1.0Co0.5Ti0.5P3O12,8.690509,0.06924543677783926
Li0.1282In0.0598Co0.0171Ti0.0256P0.1538O0.6154,Li2.5In1.1667Co0.3333Ti0.5P3O12,8.690509,0.05684023149187967
Li0.1282In0.0684Co0.0085Ti0.0256P0.1538O0.6154,Li2.5In1.3333Co0.1667Ti0.5P3O12,8.690509,0.03883965468191623
Li0.1282In0.0769Co0.0000Ti0.0256P0.1538O0.6154,Li2.5In1.5Co0.0Ti0.5P3O12,5.7995377,
Li0.1356In0.0000Co0.0847Ti0.0169P0.1525O0.6102,Li2.6667In0.0Co1.6667Ti0.3333P3O12,8.147218,
Li0.1356In0.0085Co0.0763Ti0.0169P0.1525O0.6102,Li2.6667In0.1667Co1.5Ti0.3333P3O12,8.147218,0.05582840996578417
Li0.1356In0.0254Co0.0593Ti0.0169P0.1525O0.6102,Li2.6667In0.5Co1.1667Ti0.3333P3O12,8.70839,0.049146657671077475
Li0.1356In0.0339Co0.0508Ti0.0169P0.1525O0.6102,Li2.6667In0.6667Co1.0Ti0.3333P3O12,8.70839,0.04272869824685622
Li0.1356In0.0508Co0.0339Ti0.0169P0.1525O0.6102,Li2.6667In1.0Co0.6667Ti0.3333P3O12,8.690509,0.08820103288487136
Li0.1356In0.0593Co0.0254Ti0.0169P0.1525O0.6102,Li2.6667In1.1667Co0.5Ti0.3333P3O12,8.690509,0.07543684281430894
Li0.1356In0.0763Co0.0085Ti0.0169P0.1525O0.6102,Li2.6667In1.5Co0.1667Ti0.3333P3O12,8.690509,0.04390068664101289
Li0.1356In0.0847Co0.0000Ti0.0169P0.1525O0.6102,Li2.6667In1.6667Co0.0Ti0.3333P3O12,5.7995377,
Li0.1429In0.0000Co0.0924Ti0.0084P0.1513O0.6050,Li2.8333In0.0Co1.8333Ti0.1667P3O12,11.87875,
Li0.1429In0.0168Co0.0756Ti0.0084P0.1513O0.6050,Li2.8333In0.3333Co1.5Ti0.1667P3O12,12.152672,0.05866978503873516
Li0.1429In0.0252Co0.0672Ti0.0084P0.1513O0.6050,Li2.8333In0.5Co1.3333Ti0.1667P3O12,12.43992,0.05419975769633335
Li0.1429In0.0420Co0.0504Ti0.0084P0.1513O0.6050,Li2.8333In0.8333Co1.0Ti0.1667P3O12,12.43992,0.04485025018693446
Li0.1429In0.0504Co0.0420Ti0.0084P0.1513O0.6050,Li2.8333In1.0Co0.8333Ti0.1667P3O12,12.43992,0.11923227841864581
Li0.1429In0.0672Co0.0252Ti0.0084P0.1513O0.6050,Li2.8333In1.3333Co0.5Ti0.1667P3O12,12.422039,0.08965356776558674
Li0.1429In0.0756Co0.0168Ti0.0084P0.1513O0.6050,Li2.8333In1.5Co0.3333Ti0.1667P3O12,12.422039,0.07436643985450027
Li0.1429In0.0924Co0.0000Ti0.0084P0.1513O0.6050,Li2.8333In1.8333Co0.0Ti0.1667P3O12,9.531069,
Li0.1500In0.0000Co0.1000Ti0.0000P0.1500O0.6000,Li3.0In0.0Co2.0Ti0.0P3O12,15.21023,
Li0.1500In0.0083Co0.0917Ti0.0000P0.1500O0.6000,Li3.0In0.1667Co1.8333Ti0.0P3O12,15.224806,
Li0.1500In0.0167Co0.0833Ti0.0000P0.1500O0.6000,Li3.0In0.3333Co1.6667Ti0.0P3O12,15.498728,
Li0.1500In0.0250Co0.0750Ti0.0000P0.1500O0.6000,Li3.0In0.5Co1.5Ti0.0P3O12,15.785976,
Li0.1500In0.0333Co0.0667Ti0.0000P0.1500O0.6000,Li3.0In0.6667Co1.3333Ti0.0P3O12,15.785976,
Li0.1500In0.0417Co0.0583Ti0.0000P0.1500O0.6000,Li3.0In0.8333Co1.1667Ti0.0P3O12,15.785976,
Li0.1500In0.0500Co0.0500Ti0.0000P0.1500O0.6000,Li3.0In1.0Co1.0Ti0.0P3O12,15.785976,
Li0.1500In0.0583Co0.0417Ti0.0000P0.1500O0.6000,Li3.0In1.1667Co0.8333Ti0.0P3O12,15.785976,
Li0.1500In0.0667Co0.0333Ti0.0000P0.1500O0.6000,Li3.0In1.3333Co0.6667Ti0.0P3O12,15.768095,
Li0.1500In0.0750Co0.0250Ti0.0000P0.1500O0.6000,Li3.0In1.5Co0.5Ti0.0P3O12,15.768095,
Li0.1500In0.0833Co0.0167Ti0.0000P0.1500O0.6000,Li3.0In1.6667Co0.3333Ti0.0P3O12,12.877124,
Li0.1500In0.0917Co0.0083Ti0.0000P0.1500O0.6000,Li3.0In1.8333Co0.1667Ti0.0P3O12,12.877124,
Li0.1500In0.1000Co0.0000Ti0.0000P0.1500O0.6000,Li3.0In2.0Co0.0Ti0.0P3O12,12.877124,
Li0.0556In0.0000Cr0.0000Ti0.1111P0.1667O0.6667,Li1.0In0.0Cr0.0Ti2.0P3O12,7.7087817,
Li0.0642In0.0000Cr0.0092Ti0.1009P0.1651O0.6605,Li1.1667In0.0Cr0.1667Ti1.8333P3O12,7.7087817,
Li0.0642In0.0092Cr0.0000Ti0.1009P0.1651O0.6605,Li1.1667In0.1667Cr0.0Ti1.8333P3O12,7.7087817,
Li0.0727In0.0000Cr0.0182Ti0.0909P0.1636O0.6545,Li1.3333In0.0Cr0.3333Ti1.6667P3O12,7.7087817,
Li0.0727In0.0182Cr0.0000Ti0.0909P0.1636O0.6545,Li1.3333In0.3333Cr0.0Ti1.6667P3O12,8.017441,
Li0.0811In0.0000Cr0.0270Ti0.0811P0.1622O0.6486,Li1.5In0.0Cr0.5Ti1.5P3O12,7.750805,
Li0.0811In0.0090Cr0.0180Ti0.0811P0.1622O0.6486,Li1.5In0.1667Cr0.3333Ti1.5P3O12,7.750805,0.04896396242662975
Li0.0811In0.0180Cr0.0090Ti0.0811P0.1622O0.6486,Li1.5In0.3333Cr0.1667Ti1.5P3O12,8.036197,0.060181341035257845
Li0.0811In0.0270Cr0.0000Ti0.0811P0.1622O0.6486,Li1.5In0.5Cr0.0Ti1.5P3O12,8.31198,
Li0.0893In0.0000Cr0.0357Ti0.0714P0.1607O0.6429,Li1.6667In0.0Cr0.6667Ti1.3333P3O12,8.129335,
Li0.0893In0.0089Cr0.0268Ti0.0714P0.1607O0.6429,Li1.6667In0.1667Cr0.5Ti1.3333P3O12,8.129335,0.04725689455973026
Li0.0893In0.0268Cr0.0089Ti0.0714P0.1607O0.6429,Li1.6667In0.5Cr0.1667Ti1.3333P3O12,8.690509,0.05933639430398113
Li0.0893In0.0357Cr0.0000Ti0.0714P0.1607O0.6429,Li1.6667In0.6667Cr0.0Ti1.3333P3O12,8.690509,
Li0.0973In0.0000Cr0.0442Ti0.0619P0.1593O0.6372,Li1.8333In0.0Cr0.8333Ti1.1667P3O12,7.845156,
Li0.0973In0.0177Cr0.0265Ti0.0619P0.1593O0.6372,Li1.8333In0.3333Cr0.5Ti1.1667P3O12,8.414724,0.05217546808885845
Li0.0973In0.0265Cr0.0177Ti0.0619P0.1593O0.6372,Li1.8333In0.5Cr0.3333Ti1.1667P3O12,8.690509,0.0543688481245223
Li0.0973In0.0442Cr0.0000Ti0.0619P0.1593O0.6372,Li1.8333In0.8333Cr0.0Ti1.1667P3O12,8.690509,
Li0.1053In0.0000Cr0.0526Ti0.0526P0.1579O0.6316,Li2.0In0.0Cr1.0Ti1.0P3O12,7.845156,
Li0.1053In0.0088Cr0.0439Ti0.0526P0.1579O0.6316,Li2.0In0.1667Cr0.8333Ti1.0P3O12,7.845156,0.0451601724847168
Li0.1053In0.0175Cr0.0351Ti0.0526P0.1579O0.6316,Li2.0In0.3333Cr0.6667Ti1.0P3O12,8.403259,0.051412093891292796
Li0.1053In0.0263Cr0.0263Ti0.0526P0.1579O0.6316,Li2.0In0.5Cr0.5Ti1.0P3O12,8.690509,0.05216595939600851
Li0.1053In0.0351Cr0.0175Ti0.0526P0.1579O0.6316,Li2.0In0.6667Cr0.3333Ti1.0P3O12,8.690509,0.05255718257299209
Li0.1053In0.0439Cr0.0088Ti0.0526P0.1579O0.6316,Li2.0In0.8333Cr0.1667Ti1.0P3O12,8.690509,0.056159226826082424
Li0.1053In0.0526Cr0.0000Ti0.0526P0.1579O0.6316,Li2.0In1.0Cr0.0Ti1.0P3O12,8.690509,
Li0.1130In0.0000Cr0.0609Ti0.0435P0.1565O0.6261,Li2.1667In0.0Cr1.1667Ti0.8333P3O12,13.286617,
Li0.1130In0.0087Cr0.0522Ti0.0435P0.1565O0.6261,Li2.1667In0.1667Cr1.0Ti0.8333P3O12,7.845156,0.05250383204712729
Li0.1130In0.0261Cr0.0348Ti0.0435P0.1565O0.6261,Li2.1667In0.5Cr0.6667Ti0.8333P3O12,8.690509,2.584550289656117e-05
Li0.1130In0.0348Cr0.0261Ti0.0435P0.1565O0.6261,Li2.1667In0.6667Cr0.5Ti0.8333P3O12,8.690509,3.2629030058784985e-05
Li0.1130In0.0522Cr0.0087Ti0.0435P0.1565O0.6261,Li2.1667In1.0Cr0.1667Ti0.8333P3O12,8.690509,0.0057412001298139965
Li0.1130In0.0609Cr0.0000Ti0.0435P0.1565O0.6261,Li2.1667In1.1667Cr0.0Ti0.8333P3O12,8.690509,
Li0.1207In0.0000Cr0.0690Ti0.0345P0.1552O0.6207,Li2.3333In0.0Cr1.3333Ti0.6667P3O12,13.286617,
Li0.1207In0.0172Cr0.0517Ti0.0345P0.1552O0.6207,Li2.3333In0.3333Cr1.0Ti0.6667P3O12,6.873962,0.05891999726348964
Li0.1207In0.0259Cr0.0431Ti0.0345P0.1552O0.6207,Li2.3333In0.5Cr0.8333Ti0.6667P3O12,7.0917535,1.736834719006782e-05
Li0.1207In0.0431Cr0.0259Ti0.0345P0.1552O0.6207,Li2.3333In0.8333Cr0.5Ti0.6667P3O12,8.690509,2.6503115425723755e-05
Li0.1207In0.0517Cr0.0172Ti0.0345P0.1552O0.6207,Li2.3333In1.0Cr0.3333Ti0.6667P3O12,8.690509,0.01296563889698548
Li0.1207In0.0690Cr0.0000Ti0.0345P0.1552O0.6207,Li2.3333In1.3333Cr0.0Ti0.6667P3O12,8.690509,
Li0.1282In0.0000Cr0.0769Ti0.0256P0.1538O0.6154,Li2.5In0.0Cr1.5Ti0.5P3O12,13.286617,
Li0.1282In0.0085Cr0.0684Ti0.0256P0.1538O0.6154,Li2.5In0.1667Cr1.3333Ti0.5P3O12,13.286617,0.05429755976346784
Li0.1282In0.0171Cr0.0598Ti0.0256P0.1538O0.6154,Li2.5In0.3333Cr1.1667Ti0.5P3O12,6.873962,0.059365001484634035
Li0.1282In0.0256Cr0.0513Ti0.0256P0.1538O0.6154,Li2.5In0.5Cr1.0Ti0.5P3O12,7.0917535,0.05884106165552072
Li0.1282In0.0342Cr0.0427Ti0.0256P0.1538O0.6154,Li2.5In0.6667Cr0.8333Ti0.5P3O12,7.0917535,1.367394478818638e-05
Li0.1282In0.0427Cr0.0342Ti0.0256P0.1538O0.6154,Li2.5In0.8333Cr0.6667Ti0.5P3O12,8.690509,1.6253648032056126e-05
Li0.1282In0.0513Cr0.0256Ti0.0256P0.1538O0.6154,Li2.5In1.0Cr0.5Ti0.5P3O12,8.690509,0.02226791808307491
Li0.1282In0.0598Cr0.0171Ti0.0256P0.1538O0.6154,Li2.5In1.1667Cr0.3333Ti0.5P3O12,8.690509,0.01489257575741736
Li0.1282In0.0684Cr0.0085Ti0.0256P0.1538O0.6154,Li2.5In1.3333Cr0.1667Ti0.5P3O12,8.690509,0.0075478267330767405
Li0.1282In0.0769Cr0.0000Ti0.0256P0.1538O0.6154,Li2.5In1.5Cr0.0Ti0.5P3O12,5.7995377,
Li0.1356In0.0000Cr0.0847Ti0.0169P0.1525O0.6102,Li2.6667In0.0Cr1.6667Ti0.3333P3O12,13.699678,
Li0.1356In0.0085Cr0.0763Ti0.0169P0.1525O0.6102,Li2.6667In0.1667Cr1.5Ti0.3333P3O12,13.286617,0.05658406318073828
Li0.1356In0.0254Cr0.0593Ti0.0169P0.1525O0.6102,Li2.6667In0.5Cr1.1667Ti0.3333P3O12,7.0917535,0.06012361774881891
Li0.1356In0.0339Cr0.0508Ti0.0169P0.1525O0.6102,Li2.6667In0.6667Cr1.0Ti0.3333P3O12,7.0917535,0.05835024837323522
Li0.1356In0.0508Cr0.0339Ti0.0169P0.1525O0.6102,Li2.6667In1.0Cr0.6667Ti0.3333P3O12,8.690509,0.031262535939139045
Li0.1356In0.0593Cr0.0254Ti0.0169P0.1525O0.6102,Li2.6667In1.1667Cr0.5Ti0.3333P3O12,8.690509,0.024840410471759278
Li0.1356In0.0763Cr0.0085Ti0.0169P0.1525O0.6102,Li2.6667In1.5Cr0.1667Ti0.3333P3O12,8.690509,0.00914569948574126
Li0.1356In0.0847Cr0.0000Ti0.0169P0.1525O0.6102,Li2.6667In1.6667Cr0.0Ti0.3333P3O12,5.7995377,
Li0.1429In0.0000Cr0.0924Ti0.0084P0.1513O0.6050,Li2.8333In0.0Cr1.8333Ti0.1667P3O12,17.431204,
Li0.1429In0.0168Cr0.0756Ti0.0084P0.1513O0.6050,Li2.8333In0.3333Cr1.5Ti0.1667P3O12,16.04695,0.06760041763207514
Li0.1429In0.0252Cr0.0672Ti0.0084P0.1513O0.6050,Li2.8333In0.5Cr1.3333Ti0.1667P3O12,16.26474,0.0667957749798518
Li0.1429In0.0420Cr0.0504Ti0.0084P0.1513O0.6050,Li2.8333In0.8333Cr1.0Ti0.1667P3O12,10.823288,0.06492226529434421
Li0.1429In0.0504Cr0.0420Ti0.0084P0.1513O0.6050,Li2.8333In1.0Cr0.8333Ti0.1667P3O12,10.823288,0.04474597493261681
Li0.1429In0.0672Cr0.0252Ti0.0084P0.1513O0.6050,Li2.8333In1.3333Cr0.5Ti0.1667P3O12,12.422039,0.030966384572224673
Li0.1429In0.0756Cr0.0168Ti0.0084P0.1513O0.6050,Li2.8333In1.5Cr0.3333Ti0.1667P3O12,12.422039,0.021880122240643677
Li0.1429In0.0924Cr0.0000Ti0.0084P0.1513O0.6050,Li2.8333In1.8333Cr0.0Ti0.1667P3O12,9.531069,
Li0.1500In0.0000Cr0.1000Ti0.0000P0.1500O0.6000,Li3.0In0.0Cr2.0Ti0.0P3O12,17.903326,
Li0.1500In0.0083Cr0.0917Ti0.0000P0.1500O0.6000,Li3.0In0.1667Cr1.8333Ti0.0P3O12,17.903326,
Li0.1500In0.0167Cr0.0833Ti0.0000P0.1500O0.6000,Li3.0In0.3333Cr1.6667Ti0.0P3O12,16.93213,
Li0.1500In0.0250Cr0.0750Ti0.0000P0.1500O0.6000,Li3.0In0.5Cr1.5Ti0.0P3O12,16.736862,
Li0.1500In0.0333Cr0.0667Ti0.0000P0.1500O0.6000,Li3.0In0.6667Cr1.3333Ti0.0P3O12,16.736862,
Li0.1500In0.0417Cr0.0583Ti0.0000P0.1500O0.6000,Li3.0In0.8333Cr1.1667Ti0.0P3O12,14.169344,
Li0.1500In0.0500Cr0.0500Ti0.0000P0.1500O0.6000,Li3.0In1.0Cr1.0Ti0.0P3O12,14.169344,
Li0.1500In0.0583Cr0.0417Ti0.0000P0.1500O0.6000,Li3.0In1.1667Cr0.8333Ti0.0P3O12,14.169344,
Li0.1500In0.0667Cr0.0333Ti0.0000P0.1500O0.6000,Li3.0In1.3333Cr0.6667Ti0.0P3O12,15.768095,
Li0.1500In0.0750Cr0.0250Ti0.0000P0.1500O0.6000,Li3.0In1.5Cr0.5Ti0.0P3O12,15.768095,
Li0.1500In0.0833Cr0.0167Ti0.0000P0.1500O0.6000,Li3.0In1.6667Cr0.3333Ti0.0P3O12,12.877124,
Li0.1500In0.0917Cr0.0083Ti0.0000P0.1500O0.6000,Li3.0In1.8333Cr0.1667Ti0.0P3O12,12.877124,
Li0.1500In0.1000Cr0.0000Ti0.0000P0.1500O0.6000,Li3.0In2.0Cr0.0Ti0.0P3O12,12.877124,
Li0.0556In0.0000Fe0.0000Ti0.1111P0.1667O0.6667,Li1.0In0.0Fe0.0Ti2.0P3O12,7.7087817,
Li0.0642In0.0000Fe0.0092Ti0.1009P0.1651O0.6605,Li1.1667In0.0Fe0.1667Ti1.8333P3O12,7.7087817,
Li0.0642In0.0092Fe0.0000Ti0.1009P0.1651O0.6605,Li1.1667In0.1667Fe0.0Ti1.8333P3O12,7.7087817,
Li0.0727In0.0000Fe0.0182Ti0.0909P0.1636O0.6545,Li1.3333In0.0Fe0.3333Ti1.6667P3O12,7.7087817,
Li0.0727In0.0182Fe0.0000Ti0.0909P0.1636O0.6545,Li1.3333In0.3333Fe0.0Ti1.6667P3O12,8.017441,
Li0.0811In0.0000Fe0.0270Ti0.0811P0.1622O0.6486,Li1.5In0.0Fe0.5Ti1.5P3O12,6.671572,
Li0.0811In0.0090Fe0.0180Ti0.0811P0.1622O0.6486,Li1.5In0.1667Fe0.3333Ti1.5P3O12,7.750805,0.08879959560540787
Li0.0811In0.0180Fe0.0090Ti0.0811P0.1622O0.6486,Li1.5In0.3333Fe0.1667Ti1.5P3O12,8.036197,0.1016485755404361
Li0.0811In0.0270Fe0.0000Ti0.0811P0.1622O0.6486,Li1.5In0.5Fe0.0Ti1.5P3O12,8.31198,
Li0.0893In0.0000Fe0.0357Ti0.0714P0.1607O0.6429,Li1.6667In0.0Fe0.6667Ti1.3333P3O12,7.0501,
Li0.0893In0.0089Fe0.0268Ti0.0714P0.1607O0.6429,Li1.6667In0.1667Fe0.5Ti1.3333P3O12,7.0501,0.08079879798909424
Li0.0893In0.0268Fe0.0089Ti0.0714P0.1607O0.6429,Li1.6667In0.5Fe0.1667Ti1.3333P3O12,8.690509,0.08941851641373665
Li0.0893In0.0357Fe0.0000Ti0.0714P0.1607O0.6429,Li1.6667In0.6667Fe0.0Ti1.3333P3O12,8.690509,
Li0.0973In0.0000Fe0.0442Ti0.0619P0.1593O0.6372,Li1.8333In0.0Fe0.8333Ti1.1667P3O12,6.972733,
Li0.0973In0.0177Fe0.0265Ti0.0619P0.1593O0.6372,Li1.8333In0.3333Fe0.5Ti1.1667P3O12,7.3354874,0.08187121527658305