formula,original_formula,thermal_expansion,li ion conductivity
Li0.1053B0.0439Ga0.0088Ti0.0526P0.1579O0.6316,Li2.0B0.8333Ga0.1667Ti1.0P3O12,8.129335,18.478040812427235
Li0.0642Al0.0092Ti0.1009P0.1651O0.6605,Li1.1667Al0.0Al0.1667Ti1.8333P3O12,7.7087817,0.05864479668869763
Li0.0642Al0.0092Ti0.1009P0.1651O0.6605,Li1.1667Al0.1667Al0.0Ti1.8333P3O12,7.7087817,
Li0.0727Al0.0182Ti0.0909P0.1636O0.6545,Li1.3333Al0.0Al0.3333Ti1.6667P3O12,9.113234,0.13901476279895866
Li0.0727Al0.0182Ti0.0909P0.1636O0.6545,Li1.3333Al0.3333Al0.0Ti1.6667P3O12,9.113234,
Li0.0811Al0.0270Ti0.0811P0.1622O0.6486,Li1.5Al0.0Al0.5Ti1.5P3O12,9.155256,0.1777626426740682
Li0.0811Al0.0270Ti0.0811P0.1622O0.6486,Li1.5Al0.1667Al0.3333Ti1.5P3O12,9.155256,0.12239435894598132
Li0.0811Al0.0270Ti0.0811P0.1622O0.6486,Li1.5Al0.3333Al0.1667Ti1.5P3O12,9.155256,0.04633470784483111
Li0.0811Al0.0270Ti0.0811P0.1622O0.6486,Li1.5Al0.5Al0.0Ti1.5P3O12,9.155256,
Li0.0893Al0.0357Ti0.0714P0.1607O0.6429,Li1.6667Al0.0Al0.6667Ti1.3333P3O12,9.533785,0.1922335614264465
Li0.0893Al0.0357Ti0.0714P0.1607O0.6429,Li1.6667Al0.1667Al0.5Ti1.3333P3O12,9.533785,0.15878691972399112
Li0.0893Al0.0357Ti0.0714P0.1607O0.6429,Li1.6667Al0.5Al0.1667Ti1.3333P3O12,9.533785,0.041288897076203
Li0.0893Al0.0357Ti0.0714P0.1607O0.6429,Li1.6667Al0.6667Al0.0Ti1.3333P3O12,9.533785,
Li0.0973Al0.0442Ti0.0619P0.1593O0.6372,Li1.8333Al0.0Al0.8333Ti1.1667P3O12,9.533785,0.19779760012254763
Li0.0973Al0.0442Ti0.0619P0.1593O0.6372,Li1.8333Al0.3333Al0.5Ti1.1667P3O12,9.533785,0.1416530092418147
Li0.0973Al0.0442Ti0.0619P0.1593O0.6372,Li1.8333Al0.5Al0.3333Ti1.1667P3O12,9.533785,0.09635755354175726
Li0.0973Al0.0442Ti0.0619P0.1593O0.6372,Li1.8333Al0.8333Al0.0Ti1.1667P3O12,9.533785,
Li0.1053Al0.0526Ti0.0526P0.1579O0.6316,Li2.0Al0.0Al1.0Ti1.0P3O12,9.533785,0.0002953629302937636
Li0.1053Al0.0526Ti0.0526P0.1579O0.6316,Li2.0Al0.1667Al0.8333Ti1.0P3O12,9.533785,0.17684398918185937
Li0.1053Al0.0526Ti0.0526P0.1579O0.6316,Li2.0Al0.3333Al0.6667Ti1.0P3O12,9.533785,0.15401285867665698
Li0.1053Al0.0526Ti0.0526P0.1579O0.6316,Li2.0Al0.5Al0.5Ti1.0P3O12,9.533785,0.1266043019388066
Li0.1053Al0.0526Ti0.0526P0.1579O0.6316,Li2.0Al0.6667Al0.3333Ti1.0P3O12,9.533785,0.08515761015703267
Li0.1053Al0.0526Ti0.0526P0.1579O0.6316,Li2.0Al0.8333Al0.1667Ti1.0P3O12,9.533785,0.03294893177050728
Li0.1053Al0.0526Ti0.0526P0.1579O0.6316,Li2.0Al1.0Al0.0Ti1.0P3O12,9.533785,
Li0.1130Al0.0609Ti0.0435P0.1565O0.6261,Li2.1667Al0.0Al1.1667Ti0.8333P3O12,9.286814,0.022810672224017566
Li0.1130Al0.0609Ti0.0435P0.1565O0.6261,Li2.1667Al0.1667Al1.0Ti0.8333P3O12,9.286814,0.023886990124149615
Li0.1130Al0.0609Ti0.0435P0.1565O0.6261,Li2.1667Al0.5Al0.6667Ti0.8333P3O12,9.286814,0.027242528944731507
Li0.1130Al0.0609Ti0.0435P0.1565O0.6261,Li2.1667Al0.6667Al0.5Ti0.8333P3O12,9.286814,0.025161019018029817
Li0.1130Al0.0609Ti0.0435P0.1565O0.6261,Li2.1667Al1.0Al0.1667Ti0.8333P3O12,9.286814,0.011559769675497619
Li0.1130Al0.0609Ti0.0435P0.1565O0.6261,Li2.1667Al1.1667Al0.0Ti0.8333P3O12,9.286814,
Li0.1207Al0.0690Ti0.0345P0.1552O0.6207,Li2.3333Al0.0Al1.3333Ti0.6667P3O12,9.286814,0.018371673222260035
Li0.1207Al0.0690Ti0.0345P0.1552O0.6207,Li2.3333Al0.3333Al1.0Ti0.6667P3O12,9.286814,0.019720917668897258
Li0.1207Al0.0690Ti0.0345P0.1552O0.6207,Li2.3333Al0.5Al0.8333Ti0.6667P3O12,9.286814,0.0346507712902186
Li0.1207Al0.0690Ti0.0345P0.1552O0.6207,Li2.3333Al0.8333Al0.5Ti0.6667P3O12,9.286814,0.030422327972413576
Li0.1207Al0.0690Ti0.0345P0.1552O0.6207,Li2.3333Al1.0Al0.3333Ti0.6667P3O12,9.286814,0.02461144556808277
Li0.1207Al0.0690Ti0.0345P0.1552O0.6207,Li2.3333Al1.3333Al0.0Ti0.6667P3O12,9.286814,
Li0.1282Al0.0769Ti0.0256P0.1538O0.6154,Li2.5Al0.0Al1.5Ti0.5P3O12,9.286814,0.014068157700376595
Li0.1282Al0.0769Ti0.0256P0.1538O0.6154,Li2.5Al0.1667Al1.3333Ti0.5P3O12,9.286814,0.014427850116228089
Li0.1282Al0.0769Ti0.0256P0.1538O0.6154,Li2.5Al0.3333Al1.1667Ti0.5P3O12,9.286814,0.014871399379657521
Li0.1282Al0.0769Ti0.0256P0.1538O0.6154,Li2.5Al0.5Al1.0Ti0.5P3O12,9.286814,0.015394700846244119
Li0.1282Al0.0769Ti0.0256P0.1538O0.6154,Li2.5Al0.6667Al0.8333Ti0.5P3O12,9.286814,0.04597193161483143
Li0.1282Al0.0769Ti0.0256P0.1538O0.6154,Li2.5Al0.8333Al0.6667Ti0.5P3O12,9.286814,0.043348288090084695
Li0.1282Al0.0769Ti0.0256P0.1538O0.6154,Li2.5Al1.0Al0.5Ti0.5P3O12,9.286814,0.04008514648512307
Li0.1282Al0.0769Ti0.0256P0.1538O0.6154,Li2.5Al1.1667Al0.3333Ti0.5P3O12,9.286814,0.032381631705375065
Li0.1282Al0.0769Ti0.0256P0.1538O0.6154,Li2.5Al1.3333Al0.1667Ti0.5P3O12,9.286814,0.017842483631001837
Li0.1282Al0.0769Ti0.0256P0.1538O0.6154,Li2.5Al1.5Al0.0Ti0.5P3O12,9.286814,
Li0.1356Al0.0847Ti0.0169P0.1525O0.6102,Li2.6667Al0.0Al1.6667Ti0.3333P3O12,9.286814,0.010079056413518184
Li0.1356Al0.0847Ti0.0169P0.1525O0.6102,Li2.6667Al0.1667Al1.5Ti0.3333P3O12,9.286814,0.010357864682570378
Li0.1356Al0.0847Ti0.0169P0.1525O0.6102,Li2.6667Al0.5Al1.1667Ti0.3333P3O12,9.286814,0.010872066571724103
Li0.1356Al0.0847Ti0.0169P0.1525O0.6102,Li2.6667Al0.6667Al1.0Ti0.3333P3O12,9.286814,0.011185257149639798
Li0.1356Al0.0847Ti0.0169P0.1525O0.6102,Li2.6667Al1.0Al0.6667Ti0.3333P3O12,9.286814,0.06585391230520321
Li0.1356Al0.0847Ti0.0169P0.1525O0.6102,Li2.6667Al1.1667Al0.5Ti0.3333P3O12,9.286814,0.06154829717045624
Li0.1356Al0.0847Ti0.0169P0.1525O0.6102,Li2.6667Al1.5Al0.1667Ti0.3333P3O12,9.286814,0.02715649104453558
Li0.1356Al0.0847Ti0.0169P0.1525O0.6102,Li2.6667Al1.6667Al0.0Ti0.3333P3O12,9.286814,
Li0.1429Al0.0924Ti0.0084P0.1513O0.6050,Li2.8333Al0.0Al1.8333Ti0.1667P3O12,13.018343,0.005312347596962579
Li0.1429Al0.0924Ti0.0084P0.1513O0.6050,Li2.8333Al0.3333Al1.5Ti0.1667P3O12,13.018343,0.005558223281493857
Li0.1429Al0.0924Ti0.0084P0.1513O0.6050,Li2.8333Al0.5Al1.3333Ti0.1667P3O12,13.018343,0.005684659743310508
Li0.1429Al0.0924Ti0.0084P0.1513O0.6050,Li2.8333Al0.8333Al1.0Ti0.1667P3O12,13.018343,0.005925189124079573
Li0.1429Al0.0924Ti0.0084P0.1513O0.6050,Li2.8333Al1.0Al0.8333Ti0.1667P3O12,13.018343,0.14952665500161974
Li0.1429Al0.0924Ti0.0084P0.1513O0.6050,Li2.8333Al1.3333Al0.5Ti0.1667P3O12,13.018343,0.1332838579324406
Li0.1429Al0.0924Ti0.0084P0.1513O0.6050,Li2.8333Al1.5Al0.3333Ti0.1667P3O12,13.018343,0.10621555799990338
Li0.1429Al0.0924Ti0.0084P0.1513O0.6050,Li2.8333Al1.8333Al0.0Ti0.1667P3O12,13.018343,
Li0.1500Al0.1000Ti0.0000P0.1500O0.6000,Li3.0Al0.0Al2.0Ti0.0P3O12,15.867943,
Li0.1500Al0.1000Ti0.0000P0.1500O0.6000,Li3.0Al0.1667Al1.8333Ti0.0P3O12,15.867943,
Li0.1500Al0.1000Ti0.0000P0.1500O0.6000,Li3.0Al0.3333Al1.6667Ti0.0P3O12,15.867943,
Li0.1500Al0.1000Ti0.0000P0.1500O0.6000,Li3.0Al0.5Al1.5Ti0.0P3O12,15.867943,
Li0.1500Al0.1000Ti0.0000P0.1500O0.6000,Li3.0Al0.6667Al1.3333Ti0.0P3O12,15.867943,
Li0.1500Al0.1000Ti0.0000P0.1500O0.6000,Li3.0Al0.8333Al1.1667Ti0.0P3O12,15.867943,
Li0.1500Al0.1000Ti0.0000P0.1500O0.6000,Li3.0Al1.0Al1.0Ti0.0P3O12,15.867943,
Li0.1500Al0.1000Ti0.0000P0.1500O0.6000,Li3.0Al1.1667Al0.8333Ti0.0P3O12,15.867943,
Li0.1500Al0.1000Ti0.0000P0.1500O0.6000,Li3.0Al1.3333Al0.6667Ti0.0P3O12,15.867943,
Li0.1500Al0.1000Ti0.0000P0.1500O0.6000,Li3.0Al1.5Al0.5Ti0.0P3O12,15.867943,
Li0.1500Al0.1000Ti0.0000P0.1500O0.6000,Li3.0Al1.6667Al0.3333Ti0.0P3O12,15.867943,
Li0.1500Al0.1000Ti0.0000P0.1500O0.6000,Li3.0Al1.8333Al0.1667Ti0.0P3O12,15.867943,
Li0.1500Al0.1000Ti0.0000P0.1500O0.6000,Li3.0Al2.0Al0.0Ti0.0P3O12,15.867943,
Li0.0556Al0.0000As0.0000Ti0.1111P0.1667O0.6667,Li1.0Al0.0As0.0Ti2.0P3O12,7.7087817,
Li0.0642Al0.0000As0.0092Ti0.1009P0.1651O0.6605,Li1.1667Al0.0As0.1667Ti1.8333P3O12,7.7087817,
Li0.0642Al0.0092As0.0000Ti0.1009P0.1651O0.6605,Li1.1667Al0.1667As0.0Ti1.8333P3O12,7.7087817,
Li0.0727Al0.0000As0.0182Ti0.0909P0.1636O0.6545,Li1.3333Al0.0As0.3333Ti1.6667P3O12,7.7087817,
Li0.0727Al0.0182As0.0000Ti0.0909P0.1636O0.6545,Li1.3333Al0.3333As0.0Ti1.6667P3O12,9.113234,
Li0.0811Al0.0000As0.0270Ti0.0811P0.1622O0.6486,Li1.5Al0.0As0.5Ti1.5P3O12,7.750805,
Li0.0811Al0.0090As0.0180Ti0.0811P0.1622O0.6486,Li1.5Al0.1667As0.3333Ti1.5P3O12,7.750805,0.7358379596348014
Li0.0811Al0.0180As0.0090Ti0.0811P0.1622O0.6486,Li1.5Al0.3333As0.1667Ti1.5P3O12,9.155256,2.265843212055255
Li0.0811Al0.0270As0.0000Ti0.0811P0.1622O0.6486,Li1.5Al0.5As0.0Ti1.5P3O12,9.155256,
Li0.0893Al0.0000As0.0357Ti0.0714P0.1607O0.6429,Li1.6667Al0.0As0.6667Ti1.3333P3O12,8.129335,
Li0.0893Al0.0089As0.0268Ti0.0714P0.1607O0.6429,Li1.6667Al0.1667As0.5Ti1.3333P3O12,8.129335,0.5260576432761582
Li0.0893Al0.0268As0.0089Ti0.0714P0.1607O0.6429,Li1.6667Al0.5As0.1667Ti1.3333P3O12,9.533785,2.9784623111739514
Li0.0893Al0.0357As0.0000Ti0.0714P0.1607O0.6429,Li1.6667Al0.6667As0.0Ti1.3333P3O12,9.533785,
Li0.0973Al0.0000As0.0442Ti0.0619P0.1593O0.6372,Li1.8333Al0.0As0.8333Ti1.1667P3O12,8.129335,
Li0.0973Al0.0177As0.0265Ti0.0619P0.1593O0.6372,Li1.8333Al0.3333As0.5Ti1.1667P3O12,9.533785,1.0313216078157734
Li0.0973Al0.0265As0.0177Ti0.0619P0.1593O0.6372,Li1.8333Al0.5As0.3333Ti1.1667P3O12,9.533785,1.891150130342018
Li0.0973Al0.0442As0.0000Ti0.0619P0.1593O0.6372,Li1.8333Al0.8333As0.0Ti1.1667P3O12,9.533785,
Li0.1053Al0.0000As0.0526Ti0.0526P0.1579O0.6316,Li2.0Al0.0As1.0Ti1.0P3O12,8.129335,
Li0.1053Al0.0088As0.0439Ti0.0526P0.1579O0.6316,Li2.0Al0.1667As0.8333Ti1.0P3O12,8.129335,0.30927869771694527
Li0.1053Al0.0175As0.0351Ti0.0526P0.1579O0.6316,Li2.0Al0.3333As0.6667Ti1.0P3O12,8.129335,0.7913721381732686
Li0.1053Al0.0263As0.0263Ti0.0526P0.1579O0.6316,Li2.0Al0.5As0.5Ti1.0P3O12,9.533785,1.3324113361178826
Li0.1053Al0.0351As0.0175Ti0.0526P0.1579O0.6316,Li2.0Al0.6667As0.3333Ti1.0P3O12,9.533785,2.0898900293290597
Li0.1053Al0.0439As0.0088Ti0.0526P0.1579O0.6316,Li2.0Al0.8333As0.1667Ti1.0P3O12,9.533785,3.5297080954227216
Li0.1053Al0.0526As0.0000Ti0.0526P0.1579O0.6316,Li2.0Al1.0As0.0Ti1.0P3O12,9.533785,
Li0.1130Al0.0000As0.0609Ti0.0435P0.1565O0.6261,Li2.1667Al0.0As1.1667Ti0.8333P3O12,8.129335,
Li0.1130Al0.0087As0.0522Ti0.0435P0.1565O0.6261,Li2.1667Al0.1667As1.0Ti0.8333P3O12,8.129335,0.02489012559190136
Li0.1130Al0.0261As0.0348Ti0.0435P0.1565O0.6261,Li2.1667Al0.5As0.6667Ti0.8333P3O12,9.533785,0.0007296063548011766
Li0.1130Al0.0348As0.0261Ti0.0435P0.1565O0.6261,Li2.1667Al0.6667As0.5Ti0.8333P3O12,9.533785,0.0011769056641391961
Li0.1130Al0.0522As0.0087Ti0.0435P0.1565O0.6261,Li2.1667Al1.0As0.1667Ti0.8333P3O12,9.533785,0.07001314038011469
Li0.1130Al0.0609As0.0000Ti0.0435P0.1565O0.6261,Li2.1667Al1.1667As0.0Ti0.8333P3O12,9.286814,
Li0.1207Al0.0000As0.0690Ti0.0345P0.1552O0.6207,Li2.3333Al0.0As1.3333Ti0.6667P3O12,8.129335,
Li0.1207Al0.0172As0.0517Ti0.0345P0.1552O0.6207,Li2.3333Al0.3333As1.0Ti0.6667P3O12,8.129335,0.07246891647884691
Li0.1207Al0.0259As0.0431Ti0.0345P0.1552O0.6207,Li2.3333Al0.5As0.8333Ti0.6667P3O12,9.533785,0.00045837762704928987
Li0.1207Al0.0431As0.0259Ti0.0345P0.1552O0.6207,Li2.3333Al0.8333As0.5Ti0.6667P3O12,9.533785,0.0010392494850868423
Li0.1207Al0.0517As0.0172Ti0.0345P0.1552O0.6207,Li2.3333Al1.0As0.3333Ti0.6667P3O12,9.533785,0.05677773284455055
Li0.1207Al0.0690As0.0000Ti0.0345P0.1552O0.6207,Li2.3333Al1.3333As0.0Ti0.6667P3O12,9.286814,
Li0.1282Al0.0000As0.0769Ti0.0256P0.1538O0.6154,Li2.5Al0.0As1.5Ti0.5P3O12,8.129335,
Li0.1282Al0.0085As0.0684Ti0.0256P0.1538O0.6154,Li2.5Al0.1667As1.3333Ti0.5P3O12,8.129335,0.03906735788519093
Li0.1282Al0.0171As0.0598Ti0.0256P0.1538O0.6154,Li2.5Al0.3333As1.1667Ti0.5P3O12,8.129335,0.09584348877976709
Li0.1282Al0.0256As0.0513Ti0.0256P0.1538O0.6154,Li2.5Al0.5As1.0Ti0.5P3O12,9.533785,0.13804285506881972
Li0.1282Al0.0342As0.0427Ti0.0256P0.1538O0.6154,Li2.5Al0.6667As0.8333Ti0.5P3O12,9.533785,0.00041432490743197205
Li0.1282Al0.0427As0.0342Ti0.0256P0.1538O0.6154,Li2.5Al0.8333As0.6667Ti0.5P3O12,9.533785,0.0005845566830137066
Li0.1282Al0.0513As0.0256Ti0.0256P0.1538O0.6154,Li2.5Al1.0As0.5Ti0.5P3O12,9.533785,0.05317745613199187
Li0.1282Al0.0598As0.0171Ti0.0256P0.1538O0.6154,Li2.5Al1.1667As0.3333Ti0.5P3O12,9.286814,0.07427993995479452
Li0.1282Al0.0684As0.0085Ti0.0256P0.1538O0.6154,Li2.5Al1.3333As0.1667Ti0.5P3O12,9.286814,0.10384117196785103
Li0.1282Al0.0769As0.0000Ti0.0256P0.1538O0.6154,Li2.5Al1.5As0.0Ti0.5P3O12,9.286814,
Li0.1356Al0.0000As0.0847Ti0.0169P0.1525O0.6102,Li2.6667Al0.0As1.6667Ti0.3333P3O12,8.129335,
Li0.1356Al0.0085As0.0763Ti0.0169P0.1525O0.6102,Li2.6667Al0.1667As1.5Ti0.3333P3O12,8.129335,0.05930018250893004
Li0.1356Al0.0254As0.0593Ti0.0169P0.1525O0.6102,Li2.6667Al0.5As1.1667Ti0.3333P3O12,9.533785,0.19484587232588477
Li0.1356Al0.0339As0.0508Ti0.0169P0.1525O0.6102,Li2.6667Al0.6667As1.0Ti0.3333P3O12,9.533785,0.2229678689324518
Li0.1356Al0.0508As0.0339Ti0.0169P0.1525O0.6102,Li2.6667Al1.0As0.6667Ti0.3333P3O12,9.533785,0.06480297782208527
Li0.1356Al0.0593As0.0254Ti0.0169P0.1525O0.6102,Li2.6667Al1.1667As0.5Ti0.3333P3O12,9.286814,0.08293345950156795
Li0.1356Al0.0763As0.0085Ti0.0169P0.1525O0.6102,Li2.6667Al1.5As0.1667Ti0.3333P3O12,9.286814,0.1532642198889624
Li0.1356Al0.0847As0.0000Ti0.0169P0.1525O0.6102,Li2.6667Al1.6667As0.0Ti0.3333P3O12,9.286814,
Li0.1429Al0.0000As0.0924Ti0.0084P0.1513O0.6050,Li2.8333Al0.0As1.8333Ti0.1667P3O12,11.860868,
Li0.1429Al0.0168As0.0756Ti0.0084P0.1513O0.6050,Li2.8333Al0.3333As1.5Ti0.1667P3O12,11.860868,0.2327420916500977
Li0.1429Al0.0252As0.0672Ti0.0084P0.1513O0.6050,Li2.8333Al0.5As1.3333Ti0.1667P3O12,13.265314,0.31774084780143896
Li0.1429Al0.0420As0.0504Ti0.0084P0.1513O0.6050,Li2.8333Al0.8333As1.0Ti0.1667P3O12,13.265314,0.39924802918463503
Li0.1429Al0.0504As0.0420Ti0.0084P0.1513O0.6050,Li2.8333Al1.0As0.8333Ti0.1667P3O12,13.265314,0.12142767623776285
Li0.1429Al0.0672As0.0252Ti0.0084P0.1513O0.6050,Li2.8333Al1.3333As0.5Ti0.1667P3O12,13.018343,0.1813322561040928
Li0.1429Al0.0756As0.0168Ti0.0084P0.1513O0.6050,Li2.8333Al1.5As0.3333Ti0.1667P3O12,13.018343,0.23275538041589508
Li0.1429Al0.0924As0.0000Ti0.0084P0.1513O0.6050,Li2.8333Al1.8333As0.0Ti0.1667P3O12,13.018343,
Li0.1500Al0.0000As0.1000Ti0.0000P0.1500O0.6000,Li3.0Al0.0As2.0Ti0.0P3O12,15.206924,
Li0.1500Al0.0083As0.0917Ti0.0000P0.1500O0.6000,Li3.0Al0.1667As1.8333Ti0.0P3O12,15.206924,
Li0.1500Al0.0167As0.0833Ti0.0000P0.1500O0.6000,Li3.0Al0.3333As1.6667Ti0.0P3O12,15.206924,
Li0.1500Al0.0250As0.0750Ti0.0000P0.1500O0.6000,Li3.0Al0.5As1.5Ti0.0P3O12,15.317582,
Li0.1500Al0.0333As0.0667Ti0.0000P0.1500O0.6000,Li3.0Al0.6667As1.3333Ti0.0P3O12,15.317582,
Li0.1500Al0.0417As0.0583Ti0.0000P0.1500O0.6000,Li3.0Al0.8333As1.1667Ti0.0P3O12,15.317582,
Li0.1500Al0.0500As0.0500Ti0.0000P0.1500O0.6000,Li3.0Al1.0As1.0Ti0.0P3O12,15.317582,
Li0.1500Al0.0583As0.0417Ti0.0000P0.1500O0.6000,Li3.0Al1.1667As0.8333Ti0.0P3O12,15.317582,
Li0.1500Al0.0667As0.0333Ti0.0000P0.1500O0.6000,Li3.0Al1.3333As0.6667Ti0.0P3O12,15.070612,
Li0.1500Al0.0750As0.0250Ti0.0000P0.1500O0.6000,Li3.0Al1.5As0.5Ti0.0P3O12,15.070612,
Li0.1500Al0.0833As0.0167Ti0.0000P0.1500O0.6000,Li3.0Al1.6667As0.3333Ti0.0P3O12,15.070612,
Li0.1500Al0.0917As0.0083Ti0.0000P0.1500O0.6000,Li3.0Al1.8333As0.1667Ti0.0P3O12,15.070612,
Li0.1500Al0.1000As0.0000Ti0.0000P0.1500O0.6000,Li3.0Al2.0As0.0Ti0.0P3O12,15.867943,
Li0.0556Al0.0000B0.0000Ti0.1111P0.1667O0.6667,Li1.0Al0.0B0.0Ti2.0P3O12,7.7087817,
Li0.0642Al0.0000B0.0092Ti0.1009P0.1651O0.6605,Li1.1667Al0.0B0.1667Ti1.8333P3O12,7.7087817,
Li0.0642Al0.0092B0.0000Ti0.1009P0.1651O0.6605,Li1.1667Al0.1667B0.0Ti1.8333P3O12,7.7087817,
Li0.0727Al0.0000B0.0182Ti0.0909P0.1636O0.6545,Li1.3333Al0.0B0.3333Ti1.6667P3O12,7.7087817,
Li0.0727Al0.0182B0.0000Ti0.0909P0.1636O0.6545,Li1.3333Al0.3333B0.0Ti1.6667P3O12,9.113234,
Li0.0811Al0.0000B0.0270Ti0.0811P0.1622O0.6486,Li1.5Al0.0B0.5Ti1.5P3O12,7.750805,
Li0.0811Al0.0090B0.0180Ti0.0811P0.1622O0.6486,Li1.5Al0.1667B0.3333Ti1.5P3O12,7.750805,1.051627155282929
Li0.0811Al0.0180B0.0090Ti0.0811P0.1622O0.6486,Li1.5Al0.3333B0.1667Ti1.5P3O12,9.155256,2.478845384905597
Li0.0811Al0.0270B0.0000Ti0.0811P0.1622O0.6486,Li1.5Al0.5B0.0Ti1.5P3O12,9.155256,
Li0.0893Al0.0000B0.0357Ti0.0714P0.1607O0.6429,Li1.6667Al0.0B0.6667Ti1.3333P3O12,8.129335,
Li0.0893Al0.0089B0.0268Ti0.0714P0.1607O0.6429,Li1.6667Al0.1667B0.5Ti1.3333P3O12,8.129335,0.9037513624009913
Li0.0893Al0.0268B0.0089Ti0.0714P0.1607O0.6429,Li1.6667Al0.5B0.1667Ti1.3333P3O12,9.533785,3.380116102712831
Li0.0893Al0.0357B0.0000Ti0.0714P0.1607O0.6429,Li1.6667Al0.6667B0.0Ti1.3333P3O12,9.533785,
Li0.0973Al0.0000B0.0442Ti0.0619P0.1593O0.6372,Li1.8333Al0.0B0.8333Ti1.1667P3O12,8.129335,
Li0.0973Al0.0177B0.0265Ti0.0619P0.1593O0.6372,Li1.8333Al0.3333B0.5Ti1.1667P3O12,9.533785,1.7675003725149114
Li0.0973Al0.0265B0.0177Ti0.0619P0.1593O0.6372,Li1.8333Al0.5B0.3333Ti1.1667P3O12,9.533785,2.737716163170003
Li0.0973Al0.0442B0.0000Ti0.0619P0.1593O0.6372,Li1.8333Al0.8333B0.0Ti1.1667P3O12,9.533785,
Li0.1053Al0.0000B0.0526Ti0.0526P0.1579O0.6316,Li2.0Al0.0B1.0Ti1.0P3O12,8.129335,
Li0.1053Al0.0088B0.0439Ti0.0526P0.1579O0.6316,Li2.0Al0.1667B0.8333Ti1.0P3O12,8.129335,0.7708799177843338
Li0.1053Al0.0175B0.0351Ti0.0526P0.1579O0.6316,Li2.0Al0.3333B0.6667Ti1.0P3O12,8.129335,1.5881490384963821
Li0.1053Al0.0263B0.0263Ti0.0526P0.1579O0.6316,Li2.0Al0.5B0.5Ti1.0P3O12,9.533785,2.400095479723283
Li0.1053Al0.0351B0.0175Ti0.0526P0.1579O0.6316,Li2.0Al0.6667B0.3333Ti1.0P3O12,9.533785,3.2757483127532088
Li0.1053Al0.0439B0.0088Ti0.0526P0.1579O0.6316,Li2.0Al0.8333B0.1667Ti1.0P3O12,9.533785,4.624502834769247
Li0.1053Al0.0526B0.0000Ti0.0526P0.1579O0.6316,Li2.0Al1.0B0.0Ti1.0P3O12,9.533785,
Li0.1130Al0.0000B0.0609Ti0.0435P0.1565O0.6261,Li2.1667Al0.0B1.1667Ti0.8333P3O12,8.129335,
Li0.1130Al0.0087B0.0522Ti0.0435P0.1565O0.6261,Li2.1667Al0.1667B1.0Ti0.8333P3O12,8.129335,0.5368022048789846
Li0.1130Al0.0261B0.0348Ti0.0435P0.1565O0.6261,Li2.1667Al0.5B0.6667Ti0.8333P3O12,9.533785,1.3500834173641891
Li0.1130Al0.0348B0.0261Ti0.0435P0.1565O0.6261,Li2.1667Al0.6667B0.5Ti0.8333P3O12,9.533785,1.7043416372988507
Li0.1130Al0.0522B0.0087Ti0.0435P0.1565O0.6261,Li2.1667Al1.0B0.1667Ti0.8333P3O12,9.533785,0.5110127322157633
Li0.1130Al0.0609B0.0000Ti0.0435P0.1565O0.6261,Li2.1667Al1.1667B0.0Ti0.8333P3O12,9.286814,
Li0.1207Al0.0000B0.0690Ti0.0345P0.1552O0.6207,Li2.3333Al0.0B1.3333Ti0.6667P3O12,8.129335,
Li0.1207Al0.0172B0.0517Ti0.0345P0.1552O0.6207,Li2.3333Al0.3333B1.0Ti0.6667P3O12,8.129335,1.1584151561724496
Li0.1207Al0.0259B0.0431Ti0.0345P0.1552O0.6207,Li2.3333Al0.5B0.8333Ti0.6667P3O12,9.533785,1.2106298808636582
Li0.1207Al0.0431B0.0259Ti0.0345P0.1552O0.6207,Li2.3333Al0.8333B0.5Ti0.6667P3O12,9.533785,1.830981127860221
Li0.1207Al0.0517B0.0172Ti0.0345P0.1552O0.6207,Li2.3333Al1.0B0.3333Ti0.6667P3O12,9.533785,0.8112071408689053
Li0.1207Al0.0690B0.0000Ti0.0345P0.1552O0.6207,Li2.3333Al1.3333B0.0Ti0.6667P3O12,9.286814,
Li0.1282Al0.0000B0.0769Ti0.0256P0.1538O0.6154,Li2.5Al0.0B1.5Ti0.5P3O12,8.129335,
Li0.1282Al0.0085B0.0684Ti0.0256P0.1538O0.6154,Li2.5Al0.1667B1.3333Ti0.5P3O12,8.129335,0.7014636989201034
Li0.1282Al0.0171B0.0598Ti0.0256P0.1538O0.6154,Li2.5Al0.3333B1.1667Ti0.5P3O12,8.129335,1.3076946229942494
Li0.1282Al0.0256B0.0513Ti0.0256P0.1538O0.6154,Li2.5Al0.5B1.0Ti0.5P3O12,9.533785,1.7328128105565606
Li0.1282Al0.0342B0.0427Ti0.0256P0.1538O0.6154,Li2.5Al0.6667B0.8333Ti0.5P3O12,9.533785,1.3327390746180225
Li0.1282Al0.0427B0.0342Ti0.0256P0.1538O0.6154,Li2.5Al0.8333B0.6667Ti0.5P3O12,9.533785,1.5953511950836936
Li0.1282Al0.0513B0.0256Ti0.0256P0.1538O0.6154,Li2.5Al1.0B0.5Ti0.5P3O12,9.533785,1.150817734769522
Li0.1282Al0.0598B0.0171Ti0.0256P0.1538O0.6154,Li2.5Al1.1667B0.3333Ti0.5P3O12,9.286814,0.9124365925676852
Li0.1282Al0.0684B0.0085Ti0.0256P0.1538O0.6154,Li2.5Al1.3333B0.1667Ti0.5P3O12,9.286814,0.594109387908189
Li0.1282Al0.0769B0.0000Ti0.0256P0.1538O0.6154,Li2.5Al1.5B0.0Ti0.5P3O12,9.286814,
Li0.1356Al0.0000B0.0847Ti0.0169P0.1525O0.6102,Li2.6667Al0.0B1.6667Ti0.3333P3O12,8.129335,
Li0.1356Al0.0085B0.0763Ti0.0169P0.1525O0.6102,Li2.6667Al0.1667B1.5Ti0.3333P3O12,8.129335,0.8641876906524778
Li0.1356Al0.0254B0.0593Ti0.0169P0.1525O0.6102,Li2.6667Al0.5B1.1667Ti0.3333P3O12,9.533785,2.0505532509904234
Li0.1356Al0.0339B0.0508Ti0.0169P0.1525O0.6102,Li2.6667Al0.6667B1.0Ti0.3333P3O12,9.533785,2.4077101024013743
Li0.1356Al0.0508B0.0339Ti0.0169P0.1525O0.6102,Li2.6667Al1.0B0.6667Ti0.3333P3O12,9.533785,1.6950759301607148
Li0.1356Al0.0593B0.0254Ti0.0169P0.1525O0.6102,Li2.6667Al1.1667B0.5Ti0.3333P3O12,9.286814,1.4332186999596237
Li0.1356Al0.0763B0.0085Ti0.0169P0.1525O0.6102,Li2.6667Al1.5B0.1667Ti0.3333P3O12,9.286814,0.7306039771027311
Li0.1356Al0.0847B0.0000Ti0.0169P0.1525O0.6102,Li2.6667Al1.6667B0.0Ti0.3333P3O12,9.286814,