formula,original_formula,thermal_expansion,li ion conductivity
Li0.1429As0.0756Sc0.0168Ti0.0084P0.1513O0.6050,Li2.8333As1.5Sc0.3333Ti0.1667P3O12,16.067297,0.10695856657126769
Li0.1429As0.0924Sc0.0000Ti0.0084P0.1513O0.6050,Li2.8333As1.8333Sc0.0Ti0.1667P3O12,11.860868,
Li0.1500As0.0000Sc0.1000Ti0.0000P0.1500O0.6000,Li3.0As0.0Sc2.0Ti0.0P3O12,11.964293,
Li0.1500As0.0083Sc0.0917Ti0.0000P0.1500O0.6000,Li3.0As0.1667Sc1.8333Ti0.0P3O12,11.964293,
Li0.1500As0.0167Sc0.0833Ti0.0000P0.1500O0.6000,Li3.0As0.3333Sc1.6667Ti0.0P3O12,11.799619,
Li0.1500As0.0250Sc0.0750Ti0.0000P0.1500O0.6000,Li3.0As0.5Sc1.5Ti0.0P3O12,11.799619,
Li0.1500As0.0333Sc0.0667Ti0.0000P0.1500O0.6000,Li3.0As0.6667Sc1.3333Ti0.0P3O12,11.799619,
Li0.1500As0.0417Sc0.0583Ti0.0000P0.1500O0.6000,Li3.0As0.8333Sc1.1667Ti0.0P3O12,11.799619,
Li0.1500As0.0500Sc0.0500Ti0.0000P0.1500O0.6000,Li3.0As1.0Sc1.0Ti0.0P3O12,11.799619,
Li0.1500As0.0583Sc0.0417Ti0.0000P0.1500O0.6000,Li3.0As1.1667Sc0.8333Ti0.0P3O12,11.799619,
Li0.1500As0.0667Sc0.0333Ti0.0000P0.1500O0.6000,Li3.0As1.3333Sc0.6667Ti0.0P3O12,11.799619,
Li0.1500As0.0750Sc0.0250Ti0.0000P0.1500O0.6000,Li3.0As1.5Sc0.5Ti0.0P3O12,11.799619,
Li0.1500As0.0833Sc0.0167Ti0.0000P0.1500O0.6000,Li3.0As1.6667Sc0.3333Ti0.0P3O12,17.65124,
Li0.1500As0.0917Sc0.0083Ti0.0000P0.1500O0.6000,Li3.0As1.8333Sc0.1667Ti0.0P3O12,15.814043,
Li0.1500As0.1000Sc0.0000Ti0.0000P0.1500O0.6000,Li3.0As2.0Sc0.0Ti0.0P3O12,15.206924,
Li0.0556As0.0000Y0.0000Ti0.1111P0.1667O0.6667,Li1.0As0.0Y0.0Ti2.0P3O12,7.7087817,
Li0.0642As0.0000Y0.0092Ti0.1009P0.1651O0.6605,Li1.1667As0.0Y0.1667Ti1.8333P3O12,7.7087817,
Li0.0642As0.0092Y0.0000Ti0.1009P0.1651O0.6605,Li1.1667As0.1667Y0.0Ti1.8333P3O12,7.7087817,
Li0.0727As0.0000Y0.0182Ti0.0909P0.1636O0.6545,Li1.3333As0.0Y0.3333Ti1.6667P3O12,7.8326178,
Li0.0727As0.0182Y0.0000Ti0.0909P0.1636O0.6545,Li1.3333As0.3333Y0.0Ti1.6667P3O12,7.7087817,
Li0.0811As0.0000Y0.0270Ti0.0811P0.1622O0.6486,Li1.5As0.0Y0.5Ti1.5P3O12,7.874641,
Li0.0811As0.0090Y0.0180Ti0.0811P0.1622O0.6486,Li1.5As0.1667Y0.3333Ti1.5P3O12,7.874641,2.1057309576018106
Li0.0811As0.0180Y0.0090Ti0.0811P0.1622O0.6486,Li1.5As0.3333Y0.1667Ti1.5P3O12,7.750805,3.5981490447819313
Li0.0811As0.0270Y0.0000Ti0.0811P0.1622O0.6486,Li1.5As0.5Y0.0Ti1.5P3O12,7.750805,
Li0.0893As0.0000Y0.0357Ti0.0714P0.1607O0.6429,Li1.6667As0.0Y0.6667Ti1.3333P3O12,8.253172,
Li0.0893As0.0089Y0.0268Ti0.0714P0.1607O0.6429,Li1.6667As0.1667Y0.5Ti1.3333P3O12,8.253172,1.8937994016511825
Li0.0893As0.0268Y0.0089Ti0.0714P0.1607O0.6429,Li1.6667As0.5Y0.1667Ti1.3333P3O12,8.129335,4.131259067094388
Li0.0893As0.0357Y0.0000Ti0.0714P0.1607O0.6429,Li1.6667As0.6667Y0.0Ti1.3333P3O12,8.129335,
Li0.0973As0.0000Y0.0442Ti0.0619P0.1593O0.6372,Li1.8333As0.0Y0.8333Ti1.1667P3O12,8.253172,
Li0.0973As0.0177Y0.0265Ti0.0619P0.1593O0.6372,Li1.8333As0.3333Y0.5Ti1.1667P3O12,8.253172,2.687393751222694
Li0.0973As0.0265Y0.0177Ti0.0619P0.1593O0.6372,Li1.8333As0.5Y0.3333Ti1.1667P3O12,8.253172,3.4960944342218983
Li0.0973As0.0442Y0.0000Ti0.0619P0.1593O0.6372,Li1.8333As0.8333Y0.0Ti1.1667P3O12,8.129335,
Li0.1053As0.0000Y0.0526Ti0.0526P0.1579O0.6316,Li2.0As0.0Y1.0Ti1.0P3O12,8.253172,
Li0.1053As0.0088Y0.0439Ti0.0526P0.1579O0.6316,Li2.0As0.1667Y0.8333Ti1.0P3O12,8.253172,1.6980759223495352
Li0.1053As0.0175Y0.0351Ti0.0526P0.1579O0.6316,Li2.0As0.3333Y0.6667Ti1.0P3O12,8.253172,2.4494097993983153
Li0.1053As0.0263Y0.0263Ti0.0526P0.1579O0.6316,Li2.0As0.5Y0.5Ti1.0P3O12,8.253172,3.074143001962505
Li0.1053As0.0351Y0.0175Ti0.0526P0.1579O0.6316,Li2.0As0.6667Y0.3333Ti1.0P3O12,8.253172,3.7770458081599143
Li0.1053As0.0439Y0.0088Ti0.0526P0.1579O0.6316,Li2.0As0.8333Y0.1667Ti1.0P3O12,8.129335,4.649584962044818
Li0.1053As0.0526Y0.0000Ti0.0526P0.1579O0.6316,Li2.0As1.0Y0.0Ti1.0P3O12,8.129335,
Li0.1130As0.0000Y0.0609Ti0.0435P0.1565O0.6261,Li2.1667As0.0Y1.1667Ti0.8333P3O12,7.013641,
Li0.1130As0.0087Y0.0522Ti0.0435P0.1565O0.6261,Li2.1667As0.1667Y1.0Ti0.8333P3O12,8.253172,0.27999604636077513
Li0.1130As0.0261Y0.0348Ti0.0435P0.1565O0.6261,Li2.1667As0.5Y0.6667Ti0.8333P3O12,8.253172,0.04273470368665084
Li0.1130As0.0348Y0.0261Ti0.0435P0.1565O0.6261,Li2.1667As0.6667Y0.5Ti0.8333P3O12,8.253172,0.049388998418546805
Li0.1130As0.0522Y0.0087Ti0.0435P0.1565O0.6261,Li2.1667As1.0Y0.1667Ti0.8333P3O12,8.129335,0.025153450666431404
Li0.1130As0.0609Y0.0000Ti0.0435P0.1565O0.6261,Li2.1667As1.1667Y0.0Ti0.8333P3O12,8.129335,
Li0.1207As0.0000Y0.0690Ti0.0345P0.1552O0.6207,Li2.3333As0.0Y1.3333Ti0.6667P3O12,7.013641,
Li0.1207As0.0172Y0.0517Ti0.0345P0.1552O0.6207,Li2.3333As0.3333Y1.0Ti0.6667P3O12,8.253172,0.33764717853724197
Li0.1207As0.0259Y0.0431Ti0.0345P0.1552O0.6207,Li2.3333As0.5Y0.8333Ti0.6667P3O12,8.253172,0.030205255382592954
Li0.1207As0.0431Y0.0259Ti0.0345P0.1552O0.6207,Li2.3333As0.8333Y0.5Ti0.6667P3O12,8.253172,0.03798855602566541
Li0.1207As0.0517Y0.0172Ti0.0345P0.1552O0.6207,Li2.3333As1.0Y0.3333Ti0.6667P3O12,8.253172,0.02873582135027146
Li0.1207As0.0690Y0.0000Ti0.0345P0.1552O0.6207,Li2.3333As1.3333Y0.0Ti0.6667P3O12,8.129335,
Li0.1282As0.0000Y0.0769Ti0.0256P0.1538O0.6154,Li2.5As0.0Y1.5Ti0.5P3O12,7.013641,
Li0.1282As0.0085Y0.0684Ti0.0256P0.1538O0.6154,Li2.5As0.1667Y1.3333Ti0.5P3O12,7.013641,0.2959337558295343
Li0.1282As0.0171Y0.0598Ti0.0256P0.1538O0.6154,Li2.5As0.3333Y1.1667Ti0.5P3O12,7.0560336,0.34112791592761027
Li0.1282As0.0256Y0.0513Ti0.0256P0.1538O0.6154,Li2.5As0.5Y1.0Ti0.5P3O12,8.253172,0.34885176450651695
Li0.1282As0.0342Y0.0427Ti0.0256P0.1538O0.6154,Li2.5As0.6667Y0.8333Ti0.5P3O12,8.253172,0.020993295165868925
Li0.1282As0.0427Y0.0342Ti0.0256P0.1538O0.6154,Li2.5As0.8333Y0.6667Ti0.5P3O12,8.253172,0.02338854988912033
Li0.1282As0.0513Y0.0256Ti0.0256P0.1538O0.6154,Li2.5As1.0Y0.5Ti0.5P3O12,8.253172,0.03241183086817197
Li0.1282As0.0598Y0.0171Ti0.0256P0.1538O0.6154,Li2.5As1.1667Y0.3333Ti0.5P3O12,8.253172,0.032220973446228665
Li0.1282As0.0684Y0.0085Ti0.0256P0.1538O0.6154,Li2.5As1.3333Y0.1667Ti0.5P3O12,8.129335,0.028926703428365966
Li0.1282As0.0769Y0.0000Ti0.0256P0.1538O0.6154,Li2.5As1.5Y0.0Ti0.5P3O12,8.129335,
Li0.1356As0.0000Y0.0847Ti0.0169P0.1525O0.6102,Li2.6667As0.0Y1.6667Ti0.3333P3O12,7.013641,
Li0.1356As0.0085Y0.0763Ti0.0169P0.1525O0.6102,Li2.6667As0.1667Y1.5Ti0.3333P3O12,7.013641,0.31289612878561973
Li0.1356As0.0254Y0.0593Ti0.0169P0.1525O0.6102,Li2.6667As0.5Y1.1667Ti0.3333P3O12,7.0560336,0.37014429327081666
Li0.1356As0.0339Y0.0508Ti0.0169P0.1525O0.6102,Li2.6667As0.6667Y1.0Ti0.3333P3O12,8.253172,0.3705025070232135
Li0.1356As0.0508Y0.0339Ti0.0169P0.1525O0.6102,Li2.6667As1.0Y0.6667Ti0.3333P3O12,8.253172,0.03761129924904196
Li0.1356As0.0593Y0.0254Ti0.0169P0.1525O0.6102,Li2.6667As1.1667Y0.5Ti0.3333P3O12,8.253172,0.03769100164020667
Li0.1356As0.0763Y0.0085Ti0.0169P0.1525O0.6102,Li2.6667As1.5Y0.1667Ti0.3333P3O12,8.129335,0.0329990382012655
Li0.1356As0.0847Y0.0000Ti0.0169P0.1525O0.6102,Li2.6667As1.6667Y0.0Ti0.3333P3O12,8.129335,
Li0.1429As0.0000Y0.0924Ti0.0084P0.1513O0.6050,Li2.8333As0.0Y1.8333Ti0.1667P3O12,10.745177,
Li0.1429As0.0168Y0.0756Ti0.0084P0.1513O0.6050,Li2.8333As0.3333Y1.5Ti0.1667P3O12,10.745177,0.4196538270178941
Li0.1429As0.0252Y0.0672Ti0.0084P0.1513O0.6050,Li2.8333As0.5Y1.3333Ti0.1667P3O12,10.745177,0.43443009477155675
Li0.1429As0.0420Y0.0504Ti0.0084P0.1513O0.6050,Li2.8333As0.8333Y1.0Ti0.1667P3O12,11.984705,0.4348440770630931
Li0.1429As0.0504Y0.0420Ti0.0084P0.1513O0.6050,Li2.8333As1.0Y0.8333Ti0.1667P3O12,11.984705,0.04655827519501179
Li0.1429As0.0672Y0.0252Ti0.0084P0.1513O0.6050,Li2.8333As1.3333Y0.5Ti0.1667P3O12,11.984705,0.04655653722987318
Li0.1429As0.0756Y0.0168Ti0.0084P0.1513O0.6050,Li2.8333As1.5Y0.3333Ti0.1667P3O12,11.984705,0.044040209170367356
Li0.1429As0.0924Y0.0000Ti0.0084P0.1513O0.6050,Li2.8333As1.8333Y0.0Ti0.1667P3O12,11.860868,
Li0.1500As0.0000Y0.1000Ti0.0000P0.1500O0.6000,Li3.0As0.0Y2.0Ti0.0P3O12,14.091233,
Li0.1500As0.0083Y0.0917Ti0.0000P0.1500O0.6000,Li3.0As0.1667Y1.8333Ti0.0P3O12,14.091233,
Li0.1500As0.0167Y0.0833Ti0.0000P0.1500O0.6000,Li3.0As0.3333Y1.6667Ti0.0P3O12,14.091233,
Li0.1500As0.0250Y0.0750Ti0.0000P0.1500O0.6000,Li3.0As0.5Y1.5Ti0.0P3O12,14.091233,
Li0.1500As0.0333Y0.0667Ti0.0000P0.1500O0.6000,Li3.0As0.6667Y1.3333Ti0.0P3O12,14.091233,
Li0.1500As0.0417Y0.0583Ti0.0000P0.1500O0.6000,Li3.0As0.8333Y1.1667Ti0.0P3O12,15.330761,
Li0.1500As0.0500Y0.0500Ti0.0000P0.1500O0.6000,Li3.0As1.0Y1.0Ti0.0P3O12,15.330761,
Li0.1500As0.0583Y0.0417Ti0.0000P0.1500O0.6000,Li3.0As1.1667Y0.8333Ti0.0P3O12,15.330761,
Li0.1500As0.0667Y0.0333Ti0.0000P0.1500O0.6000,Li3.0As1.3333Y0.6667Ti0.0P3O12,15.330761,
Li0.1500As0.0750Y0.0250Ti0.0000P0.1500O0.6000,Li3.0As1.5Y0.5Ti0.0P3O12,15.330761,
Li0.1500As0.0833Y0.0167Ti0.0000P0.1500O0.6000,Li3.0As1.6667Y0.3333Ti0.0P3O12,15.330761,
Li0.1500As0.0917Y0.0083Ti0.0000P0.1500O0.6000,Li3.0As1.8333Y0.1667Ti0.0P3O12,15.206924,
Li0.1500As0.1000Y0.0000Ti0.0000P0.1500O0.6000,Li3.0As2.0Y0.0Ti0.0P3O12,15.206924,
Li0.0556As0.0000Hf0.0000Ti0.1111P0.1667O0.6667,Li1.0As0.0Hf0.0Ti2.0P3O12,7.7087817,
Li0.0642As0.0000Hf0.0092Ti0.1009P0.1651O0.6605,Li1.1667As0.0Hf0.1667Ti1.8333P3O12,7.7087817,
Li0.0642As0.0092Hf0.0000Ti0.1009P0.1651O0.6605,Li1.1667As0.1667Hf0.0Ti1.8333P3O12,7.7087817,
Li0.0727As0.0000Hf0.0182Ti0.0909P0.1636O0.6545,Li1.3333As0.0Hf0.3333Ti1.6667P3O12,7.7087817,
Li0.0727As0.0182Hf0.0000Ti0.0909P0.1636O0.6545,Li1.3333As0.3333Hf0.0Ti1.6667P3O12,7.7087817,
Li0.0811As0.0000Hf0.0270Ti0.0811P0.1622O0.6486,Li1.5As0.0Hf0.5Ti1.5P3O12,7.750805,
Li0.0811As0.0090Hf0.0180Ti0.0811P0.1622O0.6486,Li1.5As0.1667Hf0.3333Ti1.5P3O12,7.750805,0.41260867911179927
Li0.0811As0.0180Hf0.0090Ti0.0811P0.1622O0.6486,Li1.5As0.3333Hf0.1667Ti1.5P3O12,7.750805,0.692953676053039
Li0.0811As0.0270Hf0.0000Ti0.0811P0.1622O0.6486,Li1.5As0.5Hf0.0Ti1.5P3O12,7.750805,
Li0.0893As0.0000Hf0.0357Ti0.0714P0.1607O0.6429,Li1.6667As0.0Hf0.6667Ti1.3333P3O12,8.1233835,
Li0.0893As0.0089Hf0.0268Ti0.0714P0.1607O0.6429,Li1.6667As0.1667Hf0.5Ti1.3333P3O12,8.129335,0.35506666090504513
Li0.0893As0.0268Hf0.0089Ti0.0714P0.1607O0.6429,Li1.6667As0.5Hf0.1667Ti1.3333P3O12,8.129335,0.7865536486579643
Li0.0893As0.0357Hf0.0000Ti0.0714P0.1607O0.6429,Li1.6667As0.6667Hf0.0Ti1.3333P3O12,8.129335,
Li0.0973As0.0000Hf0.0442Ti0.0619P0.1593O0.6372,Li1.8333As0.0Hf0.8333Ti1.1667P3O12,8.1233835,
Li0.0973As0.0177Hf0.0265Ti0.0619P0.1593O0.6372,Li1.8333As0.3333Hf0.5Ti1.1667P3O12,8.129335,0.4560621181789617
Li0.0973As0.0265Hf0.0177Ti0.0619P0.1593O0.6372,Li1.8333As0.5Hf0.3333Ti1.1667P3O12,8.129335,0.5671296785347428
Li0.0973As0.0442Hf0.0000Ti0.0619P0.1593O0.6372,Li1.8333As0.8333Hf0.0Ti1.1667P3O12,8.129335,
Li0.1053As0.0000Hf0.0526Ti0.0526P0.1579O0.6316,Li2.0As0.0Hf1.0Ti1.0P3O12,8.1233835,
Li0.1053As0.0088Hf0.0439Ti0.0526P0.1579O0.6316,Li2.0As0.1667Hf0.8333Ti1.0P3O12,8.1233835,0.2869781205337957
Li0.1053As0.0175Hf0.0351Ti0.0526P0.1579O0.6316,Li2.0As0.3333Hf0.6667Ti1.0P3O12,8.1233835,0.40230825593467345
Li0.1053As0.0263Hf0.0263Ti0.0526P0.1579O0.6316,Li2.0As0.5Hf0.5Ti1.0P3O12,8.129335,0.4703583367778385
Li0.1053As0.0351Hf0.0175Ti0.0526P0.1579O0.6316,Li2.0As0.6667Hf0.3333Ti1.0P3O12,8.129335,0.5604056342764289
Li0.1053As0.0439Hf0.0088Ti0.0526P0.1579O0.6316,Li2.0As0.8333Hf0.1667Ti1.0P3O12,8.129335,0.7944047257072315
Li0.1053As0.0526Hf0.0000Ti0.0526P0.1579O0.6316,Li2.0As1.0Hf0.0Ti1.0P3O12,8.129335,
Li0.1130As0.0000Hf0.0609Ti0.0435P0.1565O0.6261,Li2.1667As0.0Hf1.1667Ti0.8333P3O12,7.980404,
Li0.1130As0.0087Hf0.0522Ti0.0435P0.1565O0.6261,Li2.1667As0.1667Hf1.0Ti0.8333P3O12,8.1233835,0.18519779944156428
Li0.1130As0.0261Hf0.0348Ti0.0435P0.1565O0.6261,Li2.1667As0.5Hf0.6667Ti0.8333P3O12,8.1233835,0.0006794732972771518
Li0.1130As0.0348Hf0.0261Ti0.0435P0.1565O0.6261,Li2.1667As0.6667Hf0.5Ti0.8333P3O12,8.129335,0.0006663213653737054
Li0.1130As0.0522Hf0.0087Ti0.0435P0.1565O0.6261,Li2.1667As1.0Hf0.1667Ti0.8333P3O12,8.129335,0.030572339521321625
Li0.1130As0.0609Hf0.0000Ti0.0435P0.1565O0.6261,Li2.1667As1.1667Hf0.0Ti0.8333P3O12,8.129335,
Li0.1207As0.0000Hf0.0690Ti0.0345P0.1552O0.6207,Li2.3333As0.0Hf1.3333Ti0.6667P3O12,7.980404,
Li0.1207As0.0172Hf0.0517Ti0.0345P0.1552O0.6207,Li2.3333As0.3333Hf1.0Ti0.6667P3O12,8.1233835,0.19580428648162138
Li0.1207As0.0259Hf0.0431Ti0.0345P0.1552O0.6207,Li2.3333As0.5Hf0.8333Ti0.6667P3O12,8.1233835,0.0004937609398018821
Li0.1207As0.0431Hf0.0259Ti0.0345P0.1552O0.6207,Li2.3333As0.8333Hf0.5Ti0.6667P3O12,8.129335,0.000474426997719567
Li0.1207As0.0517Hf0.0172Ti0.0345P0.1552O0.6207,Li2.3333As1.0Hf0.3333Ti0.6667P3O12,8.129335,0.0356864695928142
Li0.1207As0.0690Hf0.0000Ti0.0345P0.1552O0.6207,Li2.3333As1.3333Hf0.0Ti0.6667P3O12,8.129335,
Li0.1282As0.0000Hf0.0769Ti0.0256P0.1538O0.6154,Li2.5As0.0Hf1.5Ti0.5P3O12,7.980404,
Li0.1282As0.0085Hf0.0684Ti0.0256P0.1538O0.6154,Li2.5As0.1667Hf1.3333Ti0.5P3O12,7.980404,0.19533328462377986
Li0.1282As0.0171Hf0.0598Ti0.0256P0.1538O0.6154,Li2.5As0.3333Hf1.1667Ti0.5P3O12,7.980404,0.19987780016712192
Li0.1282As0.0256Hf0.0513Ti0.0256P0.1538O0.6154,Li2.5As0.5Hf1.0Ti0.5P3O12,8.1233835,0.19320977733281047
Li0.1282As0.0342Hf0.0427Ti0.0256P0.1538O0.6154,Li2.5As0.6667Hf0.8333Ti0.5P3O12,8.1233835,0.0003177473015341002
Li0.1282As0.0427Hf0.0342Ti0.0256P0.1538O0.6154,Li2.5As0.8333Hf0.6667Ti0.5P3O12,8.1233835,0.0003078941327223295
Li0.1282As0.0513Hf0.0256Ti0.0256P0.1538O0.6154,Li2.5As1.0Hf0.5Ti0.5P3O12,8.129335,0.036744449565348815
Li0.1282As0.0598Hf0.0171Ti0.0256P0.1538O0.6154,Li2.5As1.1667Hf0.3333Ti0.5P3O12,8.129335,0.03640699909554837
Li0.1282As0.0684Hf0.0085Ti0.0256P0.1538O0.6154,Li2.5As1.3333Hf0.1667Ti0.5P3O12,8.129335,0.030979715348116207
Li0.1282As0.0769Hf0.0000Ti0.0256P0.1538O0.6154,Li2.5As1.5Hf0.0Ti0.5P3O12,8.129335,
Li0.1356As0.0000Hf0.0847Ti0.0169P0.1525O0.6102,Li2.6667As0.0Hf1.6667Ti0.3333P3O12,7.980404,
Li0.1356As0.0085Hf0.0763Ti0.0169P0.1525O0.6102,Li2.6667As0.1667Hf1.5Ti0.3333P3O12,7.980404,0.21093002445176812
Li0.1356As0.0254Hf0.0593Ti0.0169P0.1525O0.6102,Li2.6667As0.5Hf1.1667Ti0.3333P3O12,7.980404,0.20630663999536203
Li0.1356As0.0339Hf0.0508Ti0.0169P0.1525O0.6102,Li2.6667As0.6667Hf1.0Ti0.3333P3O12,8.1233835,0.19237333676419335
Li0.1356As0.0508Hf0.0339Ti0.0169P0.1525O0.6102,Li2.6667As1.0Hf0.6667Ti0.3333P3O12,8.1233835,0.03734522729173783
Li0.1356As0.0593Hf0.0254Ti0.0169P0.1525O0.6102,Li2.6667As1.1667Hf0.5Ti0.3333P3O12,8.129335,0.03930347255337815
Li0.1356As0.0763Hf0.0085Ti0.0169P0.1525O0.6102,Li2.6667As1.5Hf0.1667Ti0.3333P3O12,8.129335,0.03161749954641912
Li0.1356As0.0847Hf0.0000Ti0.0169P0.1525O0.6102,Li2.6667As1.6667Hf0.0Ti0.3333P3O12,8.129335,
Li0.1429As0.0000Hf0.0924Ti0.0084P0.1513O0.6050,Li2.8333As0.0Hf1.8333Ti0.1667P3O12,9.871589,
Li0.1429As0.0168Hf0.0756Ti0.0084P0.1513O0.6050,Li2.8333As0.3333Hf1.5Ti0.1667P3O12,11.711937,0.25055971016044104
Li0.1429As0.0252Hf0.0672Ti0.0084P0.1513O0.6050,Li2.8333As0.5Hf1.3333Ti0.1667P3O12,11.711937,0.23898440948241892
Li0.1429As0.0420Hf0.0504Ti0.0084P0.1513O0.6050,Li2.8333As0.8333Hf1.0Ti0.1667P3O12,11.854917,0.20874958270870075
Li0.1429As0.0504Hf0.0420Ti0.0084P0.1513O0.6050,Li2.8333As1.0Hf0.8333Ti0.1667P3O12,11.854917,0.04073388078319116
Li0.1429As0.0672Hf0.0252Ti0.0084P0.1513O0.6050,Li2.8333As1.3333Hf0.5Ti0.1667P3O12,11.860868,0.04441645639571177
Li0.1429As0.0756Hf0.0168Ti0.0084P0.1513O0.6050,Li2.8333As1.5Hf0.3333Ti0.1667P3O12,11.860868,0.04173666380020867
Li0.1429As0.0924Hf0.0000Ti0.0084P0.1513O0.6050,Li2.8333As1.8333Hf0.0Ti0.1667P3O12,11.860868,
Li0.1500As0.0000Hf0.1000Ti0.0000P0.1500O0.6000,Li3.0As0.0Hf2.0Ti0.0P3O12,13.217646,
Li0.1500As0.0083Hf0.0917Ti0.0000P0.1500O0.6000,Li3.0As0.1667Hf1.8333Ti0.0P3O12,13.217646,
Li0.1500As0.0167Hf0.0833Ti0.0000P0.1500O0.6000,Li3.0As0.3333Hf1.6667Ti0.0P3O12,15.057993,
Li0.1500As0.0250Hf0.0750Ti0.0000P0.1500O0.6000,Li3.0As0.5Hf1.5Ti0.0P3O12,15.057993,
Li0.1500As0.0333Hf0.0667Ti0.0000P0.1500O0.6000,Li3.0As0.6667Hf1.3333Ti0.0P3O12,15.057993,
Li0.1500As0.0417Hf0.0583Ti0.0000P0.1500O0.6000,Li3.0As0.8333Hf1.1667Ti0.0P3O12,15.200973,
Li0.1500As0.0500Hf0.0500Ti0.0000P0.1500O0.6000,Li3.0As1.0Hf1.0Ti0.0P3O12,15.200973,
Li0.1500As0.0583Hf0.0417Ti0.0000P0.1500O0.6000,Li3.0As1.1667Hf0.8333Ti0.0P3O12,15.200973,
Li0.1500As0.0667Hf0.0333Ti0.0000P0.1500O0.6000,Li3.0As1.3333Hf0.6667Ti0.0P3O12,15.200973,
Li0.1500As0.0750Hf0.0250Ti0.0000P0.1500O0.6000,Li3.0As1.5Hf0.5Ti0.0P3O12,15.206924,
Li0.1500As0.0833Hf0.0167Ti0.0000P0.1500O0.6000,Li3.0As1.6667Hf0.3333Ti0.0P3O12,15.206924,
Li0.1500As0.0917Hf0.0083Ti0.0000P0.1500O0.6000,Li3.0As1.8333Hf0.1667Ti0.0P3O12,15.206924,
Li0.1500As0.1000Hf0.0000Ti0.0000P0.1500O0.6000,Li3.0As2.0Hf0.0Ti0.0P3O12,15.206924,
Li0.0556As0.0000Bi0.0000Ti0.1111P0.1667O0.6667,Li1.0As0.0Bi0.0Ti2.0P3O12,7.7087817,
Li0.0642As0.0000Bi0.0092Ti0.1009P0.1651O0.6605,Li1.1667As0.0Bi0.1667Ti1.8333P3O12,7.7087817,
Li0.0642As0.0092Bi0.0000Ti0.1009P0.1651O0.6605,Li1.1667As0.1667Bi0.0Ti1.8333P3O12,7.7087817,
Li0.0727As0.0000Bi0.0182Ti0.0909P0.1636O0.6545,Li1.3333As0.0Bi0.3333Ti1.6667P3O12,7.7087817,
Li0.0727As0.0182Bi0.0000Ti0.0909P0.1636O0.6545,Li1.3333As0.3333Bi0.0Ti1.6667P3O12,7.7087817,
Li0.0811As0.0000Bi0.0270Ti0.0811P0.1622O0.6486,Li1.5As0.0Bi0.5Ti1.5P3O12,7.750805,
Li0.0811As0.0090Bi0.0180Ti0.0811P0.1622O0.6486,Li1.5As0.1667Bi0.3333Ti1.5P3O12,7.750805,0.010787737595832783
Li0.0811As0.0180Bi0.0090Ti0.0811P0.1622O0.6486,Li1.5As0.3333Bi0.1667Ti1.5P3O12,7.750805,0.012592582998465168
Li0.0811As0.0270Bi0.0000Ti0.0811P0.1622O0.6486,Li1.5As0.5Bi0.0Ti1.5P3O12,7.750805,
Li0.0893As0.0000Bi0.0357Ti0.0714P0.1607O0.6429,Li1.6667As0.0Bi0.6667Ti1.3333P3O12,8.129335,
Li0.0893As0.0089Bi0.0268Ti0.0714P0.1607O0.6429,Li1.6667As0.1667Bi0.5Ti1.3333P3O12,8.129335,0.00906066338249085
Li0.0893As0.0268Bi0.0089Ti0.0714P0.1607O0.6429,Li1.6667As0.5Bi0.1667Ti1.3333P3O12,8.129335,0.008599307935023061
Li0.0893As0.0357Bi0.0000Ti0.0714P0.1607O0.6429,Li1.6667As0.6667Bi0.0Ti1.3333P3O12,8.129335,
Li0.0973As0.0000Bi0.0442Ti0.0619P0.1593O0.6372,Li1.8333As0.0Bi0.8333Ti1.1667P3O12,8.129335,
Li0.0973As0.0177Bi0.0265Ti0.0619P0.1593O0.6372,Li1.8333As0.3333Bi0.5Ti1.1667P3O12,8.129335,0.006616105426387758
Li0.0973As0.0265Bi0.0177Ti0.0619P0.1593O0.6372,Li1.8333As0.5Bi0.3333Ti1.1667P3O12,8.129335,0.00545675760013808
Li0.0973As0.0442Bi0.0000Ti0.0619P0.1593O0.6372,Li1.8333As0.8333Bi0.0Ti1.1667P3O12,8.129335,
Li0.1053As0.0000Bi0.0526Ti0.0526P0.1579O0.6316,Li2.0As0.0Bi1.0Ti1.0P3O12,8.129335,
Li0.1053As0.0088Bi0.0439Ti0.0526P0.1579O0.6316,Li2.0As0.1667Bi0.8333Ti1.0P3O12,8.129335,0.006606160942845484
Li0.1053As0.0175Bi0.0351Ti0.0526P0.1579O0.6316,Li2.0As0.3333Bi0.6667Ti1.0P3O12,8.129335,0.005294052709749859
Li0.1053As0.0263Bi0.0263Ti0.0526P0.1579O0.6316,Li2.0As0.5Bi0.5Ti1.0P3O12,8.129335,0.003815383524403181
Li0.1053As0.0351Bi0.0175Ti0.0526P0.1579O0.6316,Li2.0As0.6667Bi0.3333Ti1.0P3O12,8.129335,0.0032094712301372393
Li0.1053As0.0439Bi0.0088Ti0.0526P0.1579O0.6316,Li2.0As0.8333Bi0.1667Ti1.0P3O12,8.129335,0.003810786631381571
Li0.1053As0.0526Bi0.0000Ti0.0526P0.1579O0.6316,Li2.0As1.0Bi0.0Ti1.0P3O12,8.129335,
Li0.1130As0.0000Bi0.0609Ti0.0435P0.1565O0.6261,Li2.1667As0.0Bi1.1667Ti0.8333P3O12,8.129335,
Li0.1130As0.0087Bi0.0522Ti0.0435P0.1565O0.6261,Li2.1667As0.1667Bi1.0Ti0.8333P3O12,8.129335,0.5547020884525483
Li0.1130As0.0261Bi0.0348Ti0.0435P0.1565O0.6261,Li2.1667As0.5Bi0.6667Ti0.8333P3O12,8.129335,2.1832128004890678e-07
Li0.1130As0.0348Bi0.0261Ti0.0435P0.1565O0.6261,Li2.1667As0.6667Bi0.5Ti0.8333P3O12,8.129335,1.8771934319304618e-07
Li0.1130As0.0522Bi0.0087Ti0.0435P0.1565O0.6261,Li2.1667As1.0Bi0.1667Ti0.8333P3O12,8.129335,0.035911060699076645
Li0.1130As0.0609Bi0.0000Ti0.0435P0.1565O0.6261,Li2.1667As1.1667Bi0.0Ti0.8333P3O12,8.129335,
Li0.1207As0.0000Bi0.0690Ti0.0345P0.1552O0.6207,Li2.3333As0.0Bi1.3333Ti0.6667P3O12,8.129335,
Li0.1207As0.0172Bi0.0517Ti0.0345P0.1552O0.6207,Li2.3333As0.3333Bi1.0Ti0.6667P3O12,8.129335,0.6116689400372558
Li0.1207As0.0259Bi0.0431Ti0.0345P0.1552O0.6207,Li2.3333As0.5Bi0.8333Ti0.6667P3O12,8.129335,1.627253989632248e-07
Li0.1207As0.0431Bi0.0259Ti0.0345P0.1552O0.6207,Li2.3333As0.8333Bi0.5Ti0.6667P3O12,8.129335,1.2421673421114734e-07
Li0.1207As0.0517Bi0.0172Ti0.0345P0.1552O0.6207,Li2.3333As1.0Bi0.3333Ti0.6667P3O12,8.129335,0.04666241877917433
Li0.1207As0.0690Bi0.0000Ti0.0345P0.1552O0.6207,Li2.3333As1.3333Bi0.0Ti0.6667P3O12,8.129335,
Li0.1282As0.0000Bi0.0769Ti0.0256P0.1538O0.6154,Li2.5As0.0Bi1.5Ti0.5P3O12,8.129335,