formula,original_formula,thermal_expansion,li ion conductivity
Li0.1282As0.0085Ga0.0684Ti0.0256P0.1538O0.6154,Li2.5As0.1667Ga1.3333Ti0.5P3O12,6.7658024,0.06049854877176338
Li0.1282As0.0171Ga0.0598Ti0.0256P0.1538O0.6154,Li2.5As0.3333Ga1.1667Ti0.5P3O12,6.7658024,0.0392356075591035
Li0.1282As0.0256Ga0.0513Ti0.0256P0.1538O0.6154,Li2.5As0.5Ga1.0Ti0.5P3O12,8.099321,0.028413552941845954
Li0.1282As0.0342Ga0.0427Ti0.0256P0.1538O0.6154,Li2.5As0.6667Ga0.8333Ti0.5P3O12,8.099321,0.07559504136259375
Li0.1282As0.0427Ga0.0342Ti0.0256P0.1538O0.6154,Li2.5As0.8333Ga0.6667Ti0.5P3O12,8.099321,0.08601593133258136
Li0.1282As0.0513Ga0.0256Ti0.0256P0.1538O0.6154,Li2.5As1.0Ga0.5Ti0.5P3O12,8.099321,0.00021106682390164994
Li0.1282As0.0598Ga0.0171Ti0.0256P0.1538O0.6154,Li2.5As1.1667Ga0.3333Ti0.5P3O12,8.099321,0.00025399446753896973
Li0.1282As0.0684Ga0.0085Ti0.0256P0.1538O0.6154,Li2.5As1.3333Ga0.1667Ti0.5P3O12,8.129335,0.00032100491938648936
Li0.1282As0.0769Ga0.0000Ti0.0256P0.1538O0.6154,Li2.5As1.5Ga0.0Ti0.5P3O12,8.129335,
Li0.1356As0.0000Ga0.0847Ti0.0169P0.1525O0.6102,Li2.6667As0.0Ga1.6667Ti0.3333P3O12,6.7658024,
Li0.1356As0.0085Ga0.0763Ti0.0169P0.1525O0.6102,Li2.6667As0.1667Ga1.5Ti0.3333P3O12,6.7658024,0.08472673618845437
Li0.1356As0.0254Ga0.0593Ti0.0169P0.1525O0.6102,Li2.6667As0.5Ga1.1667Ti0.3333P3O12,6.7658024,0.04147609418368145
Li0.1356As0.0339Ga0.0508Ti0.0169P0.1525O0.6102,Li2.6667As0.6667Ga1.0Ti0.3333P3O12,8.099321,0.032656161111493776
Li0.1356As0.0508Ga0.0339Ti0.0169P0.1525O0.6102,Li2.6667As1.0Ga0.6667Ti0.3333P3O12,8.099321,0.00030556634186678917
Li0.1356As0.0593Ga0.0254Ti0.0169P0.1525O0.6102,Li2.6667As1.1667Ga0.5Ti0.3333P3O12,8.099321,0.00033919831172688576
Li0.1356As0.0763Ga0.0085Ti0.0169P0.1525O0.6102,Li2.6667As1.5Ga0.1667Ti0.3333P3O12,8.129335,0.0005088040950235771
Li0.1356As0.0847Ga0.0000Ti0.0169P0.1525O0.6102,Li2.6667As1.6667Ga0.0Ti0.3333P3O12,8.129335,
Li0.1429As0.0000Ga0.0924Ti0.0084P0.1513O0.6050,Li2.8333As0.0Ga1.8333Ti0.1667P3O12,10.497339,
Li0.1429As0.0168Ga0.0756Ti0.0084P0.1513O0.6050,Li2.8333As0.3333Ga1.5Ti0.1667P3O12,10.497339,0.11207378568501976
Li0.1429As0.0252Ga0.0672Ti0.0084P0.1513O0.6050,Li2.8333As0.5Ga1.3333Ti0.1667P3O12,10.497339,0.08524292430367697
Li0.1429As0.0420Ga0.0504Ti0.0084P0.1513O0.6050,Li2.8333As0.8333Ga1.0Ti0.1667P3O12,11.830854,0.055306831414193444
Li0.1429As0.0504Ga0.0420Ti0.0084P0.1513O0.6050,Li2.8333As1.0Ga0.8333Ti0.1667P3O12,11.830854,0.0006917704491364708
Li0.1429As0.0672Ga0.0252Ti0.0084P0.1513O0.6050,Li2.8333As1.3333Ga0.5Ti0.1667P3O12,11.830854,0.0007630166712238463
Li0.1429As0.0756Ga0.0168Ti0.0084P0.1513O0.6050,Li2.8333As1.5Ga0.3333Ti0.1667P3O12,11.830854,0.0008627717571003199
Li0.1429As0.0924Ga0.0000Ti0.0084P0.1513O0.6050,Li2.8333As1.8333Ga0.0Ti0.1667P3O12,11.860868,
Li0.1500As0.0000Ga0.1000Ti0.0000P0.1500O0.6000,Li3.0As0.0Ga2.0Ti0.0P3O12,13.755412,
Li0.1500As0.0083Ga0.0917Ti0.0000P0.1500O0.6000,Li3.0As0.1667Ga1.8333Ti0.0P3O12,13.843395,
Li0.1500As0.0167Ga0.0833Ti0.0000P0.1500O0.6000,Li3.0As0.3333Ga1.6667Ti0.0P3O12,13.843395,
Li0.1500As0.0250Ga0.0750Ti0.0000P0.1500O0.6000,Li3.0As0.5Ga1.5Ti0.0P3O12,13.843395,
Li0.1500As0.0333Ga0.0667Ti0.0000P0.1500O0.6000,Li3.0As0.6667Ga1.3333Ti0.0P3O12,13.843395,
Li0.1500As0.0417Ga0.0583Ti0.0000P0.1500O0.6000,Li3.0As0.8333Ga1.1667Ti0.0P3O12,15.17691,
Li0.1500As0.0500Ga0.0500Ti0.0000P0.1500O0.6000,Li3.0As1.0Ga1.0Ti0.0P3O12,15.17691,
Li0.1500As0.0583Ga0.0417Ti0.0000P0.1500O0.6000,Li3.0As1.1667Ga0.8333Ti0.0P3O12,15.17691,
Li0.1500As0.0667Ga0.0333Ti0.0000P0.1500O0.6000,Li3.0As1.3333Ga0.6667Ti0.0P3O12,15.17691,
Li0.1500As0.0750Ga0.0250Ti0.0000P0.1500O0.6000,Li3.0As1.5Ga0.5Ti0.0P3O12,15.17691,
Li0.1500As0.0833Ga0.0167Ti0.0000P0.1500O0.6000,Li3.0As1.6667Ga0.3333Ti0.0P3O12,15.17691,
Li0.1500As0.0917Ga0.0083Ti0.0000P0.1500O0.6000,Li3.0As1.8333Ga0.1667Ti0.0P3O12,15.206924,
Li0.1500As0.1000Ga0.0000Ti0.0000P0.1500O0.6000,Li3.0As2.0Ga0.0Ti0.0P3O12,15.206924,
Li0.0556As0.0000In0.0000Ti0.1111P0.1667O0.6667,Li1.0As0.0In0.0Ti2.0P3O12,7.7087817,
Li0.0642As0.0000In0.0092Ti0.1009P0.1651O0.6605,Li1.1667As0.0In0.1667Ti1.8333P3O12,7.7087817,
Li0.0642As0.0092In0.0000Ti0.1009P0.1651O0.6605,Li1.1667As0.1667In0.0Ti1.8333P3O12,7.7087817,
Li0.0727As0.0000In0.0182Ti0.0909P0.1636O0.6545,Li1.3333As0.0In0.3333Ti1.6667P3O12,8.017441,
Li0.0727As0.0182In0.0000Ti0.0909P0.1636O0.6545,Li1.3333As0.3333In0.0Ti1.6667P3O12,7.7087817,
Li0.0811As0.0000In0.0270Ti0.0811P0.1622O0.6486,Li1.5As0.0In0.5Ti1.5P3O12,8.31198,
Li0.0811As0.0090In0.0180Ti0.0811P0.1622O0.6486,Li1.5As0.1667In0.3333Ti1.5P3O12,8.036197,2.7604065102998683
Li0.0811As0.0180In0.0090Ti0.0811P0.1622O0.6486,Li1.5As0.3333In0.1667Ti1.5P3O12,7.750805,4.564523590997334
Li0.0811As0.0270In0.0000Ti0.0811P0.1622O0.6486,Li1.5As0.5In0.0Ti1.5P3O12,7.750805,
Li0.0893As0.0000In0.0357Ti0.0714P0.1607O0.6429,Li1.6667As0.0In0.6667Ti1.3333P3O12,8.690509,
Li0.0893As0.0089In0.0268Ti0.0714P0.1607O0.6429,Li1.6667As0.1667In0.5Ti1.3333P3O12,8.690509,2.4823424721812577
Li0.0893As0.0268In0.0089Ti0.0714P0.1607O0.6429,Li1.6667As0.5In0.1667Ti1.3333P3O12,8.129335,5.164019814516361
Li0.0893As0.0357In0.0000Ti0.0714P0.1607O0.6429,Li1.6667As0.6667In0.0Ti1.3333P3O12,8.129335,
Li0.0973As0.0000In0.0442Ti0.0619P0.1593O0.6372,Li1.8333As0.0In0.8333Ti1.1667P3O12,8.690509,
Li0.0973As0.0177In0.0265Ti0.0619P0.1593O0.6372,Li1.8333As0.3333In0.5Ti1.1667P3O12,8.690509,3.4287381132263475
Li0.0973As0.0265In0.0177Ti0.0619P0.1593O0.6372,Li1.8333As0.5In0.3333Ti1.1667P3O12,8.414724,4.277354841266402
Li0.0973As0.0442In0.0000Ti0.0619P0.1593O0.6372,Li1.8333As0.8333In0.0Ti1.1667P3O12,8.129335,
Li0.1053As0.0000In0.0526Ti0.0526P0.1579O0.6316,Li2.0As0.0In1.0Ti1.0P3O12,8.690509,
Li0.1053As0.0088In0.0439Ti0.0526P0.1579O0.6316,Li2.0As0.1667In0.8333Ti1.0P3O12,8.690509,2.1363977504457226
Li0.1053As0.0175In0.0351Ti0.0526P0.1579O0.6316,Li2.0As0.3333In0.6667Ti1.0P3O12,8.690509,3.160599368538674
Li0.1053As0.0263In0.0263Ti0.0526P0.1579O0.6316,Li2.0As0.5In0.5Ti1.0P3O12,8.690509,3.7775103070658345
Li0.1053As0.0351In0.0175Ti0.0526P0.1579O0.6316,Li2.0As0.6667In0.3333Ti1.0P3O12,8.403259,4.362334953604958
Li0.1053As0.0439In0.0088Ti0.0526P0.1579O0.6316,Li2.0As0.8333In0.1667Ti1.0P3O12,8.129335,5.308825788417827
Li0.1053As0.0526In0.0000Ti0.0526P0.1579O0.6316,Li2.0As1.0In0.0Ti1.0P3O12,8.129335,
Li0.1130As0.0000In0.0609Ti0.0435P0.1565O0.6261,Li2.1667As0.0In1.1667Ti0.8333P3O12,8.690509,
Li0.1130As0.0087In0.0522Ti0.0435P0.1565O0.6261,Li2.1667As0.1667In1.0Ti0.8333P3O12,8.690509,0.07372013740199468
Li0.1130As0.0261In0.0348Ti0.0435P0.1565O0.6261,Li2.1667As0.5In0.6667Ti0.8333P3O12,8.690509,0.006702027522906811
Li0.1130As0.0348In0.0261Ti0.0435P0.1565O0.6261,Li2.1667As0.6667In0.5Ti0.8333P3O12,8.690509,0.007510791256013272
Li0.1130As0.0522In0.0087Ti0.0435P0.1565O0.6261,Li2.1667As1.0In0.1667Ti0.8333P3O12,8.129335,0.000644013707214531
Li0.1130As0.0609In0.0000Ti0.0435P0.1565O0.6261,Li2.1667As1.1667In0.0Ti0.8333P3O12,8.129335,
Li0.1207As0.0000In0.0690Ti0.0345P0.1552O0.6207,Li2.3333As0.0In1.3333Ti0.6667P3O12,8.690509,
Li0.1207As0.0172In0.0517Ti0.0345P0.1552O0.6207,Li2.3333As0.3333In1.0Ti0.6667P3O12,8.690509,0.06899704178988351
Li0.1207As0.0259In0.0431Ti0.0345P0.1552O0.6207,Li2.3333As0.5In0.8333Ti0.6667P3O12,8.690509,0.004623718429560891
Li0.1207As0.0431In0.0259Ti0.0345P0.1552O0.6207,Li2.3333As0.8333In0.5Ti0.6667P3O12,8.690509,0.00559009716888752
Li0.1207As0.0517In0.0172Ti0.0345P0.1552O0.6207,Li2.3333As1.0In0.3333Ti0.6667P3O12,8.403259,0.0004623596592561439
Li0.1207As0.0690In0.0000Ti0.0345P0.1552O0.6207,Li2.3333As1.3333In0.0Ti0.6667P3O12,8.129335,
Li0.1282As0.0000In0.0769Ti0.0256P0.1538O0.6154,Li2.5As0.0In1.5Ti0.5P3O12,5.7995377,
Li0.1282As0.0085In0.0684Ti0.0256P0.1538O0.6154,Li2.5As0.1667In1.3333Ti0.5P3O12,8.690509,0.08624118632608477
Li0.1282As0.0171In0.0598Ti0.0256P0.1538O0.6154,Li2.5As0.3333In1.1667Ti0.5P3O12,8.690509,0.07959111723216439
Li0.1282As0.0256In0.0513Ti0.0256P0.1538O0.6154,Li2.5As0.5In1.0Ti0.5P3O12,8.690509,0.0620912298407067
Li0.1282As0.0342In0.0427Ti0.0256P0.1538O0.6154,Li2.5As0.6667In0.8333Ti0.5P3O12,8.690509,0.0031482263387515343
Li0.1282As0.0427In0.0342Ti0.0256P0.1538O0.6154,Li2.5As0.8333In0.6667Ti0.5P3O12,8.690509,0.003440065676142338
Li0.1282As0.0513In0.0256Ti0.0256P0.1538O0.6154,Li2.5As1.0In0.5Ti0.5P3O12,8.690509,0.00040619726229232806
Li0.1282As0.0598In0.0171Ti0.0256P0.1538O0.6154,Li2.5As1.1667In0.3333Ti0.5P3O12,8.403259,0.0005887434263188661
Li0.1282As0.0684In0.0085Ti0.0256P0.1538O0.6154,Li2.5As1.3333In0.1667Ti0.5P3O12,8.129335,0.0008890807987494261
Li0.1282As0.0769In0.0000Ti0.0256P0.1538O0.6154,Li2.5As1.5In0.0Ti0.5P3O12,8.129335,
Li0.1356As0.0000In0.0847Ti0.0169P0.1525O0.6102,Li2.6667As0.0In1.6667Ti0.3333P3O12,5.7995377,
Li0.1356As0.0085In0.0763Ti0.0169P0.1525O0.6102,Li2.6667As0.1667In1.5Ti0.3333P3O12,8.690509,0.10154773406342352
Li0.1356As0.0254In0.0593Ti0.0169P0.1525O0.6102,Li2.6667As0.5In1.1667Ti0.3333P3O12,8.690509,0.08295440545008244
Li0.1356As0.0339In0.0508Ti0.0169P0.1525O0.6102,Li2.6667As0.6667In1.0Ti0.3333P3O12,8.690509,0.0651459046050877
Li0.1356As0.0508In0.0339Ti0.0169P0.1525O0.6102,Li2.6667As1.0In0.6667Ti0.3333P3O12,8.690509,0.00044392664328896645
Li0.1356As0.0593In0.0254Ti0.0169P0.1525O0.6102,Li2.6667As1.1667In0.5Ti0.3333P3O12,8.690509,0.0005922223305128017
Li0.1356As0.0763In0.0085Ti0.0169P0.1525O0.6102,Li2.6667As1.5In0.1667Ti0.3333P3O12,8.129335,0.0012356028205260414
Li0.1356As0.0847In0.0000Ti0.0169P0.1525O0.6102,Li2.6667As1.6667In0.0Ti0.3333P3O12,8.129335,
Li0.1429As0.0000In0.0924Ti0.0084P0.1513O0.6050,Li2.8333As0.0In1.8333Ti0.1667P3O12,9.531069,
Li0.1429As0.0168In0.0756Ti0.0084P0.1513O0.6050,Li2.8333As0.3333In1.5Ti0.1667P3O12,12.422039,0.13467034850301948
Li0.1429As0.0252In0.0672Ti0.0084P0.1513O0.6050,Li2.8333As0.5In1.3333Ti0.1667P3O12,12.422039,0.1193455710931153
Li0.1429As0.0420In0.0504Ti0.0084P0.1513O0.6050,Li2.8333As0.8333In1.0Ti0.1667P3O12,12.422039,0.09550366672243973
Li0.1429As0.0504In0.0420Ti0.0084P0.1513O0.6050,Li2.8333As1.0In0.8333Ti0.1667P3O12,12.422039,0.0007140917966311412
Li0.1429As0.0672In0.0252Ti0.0084P0.1513O0.6050,Li2.8333As1.3333In0.5Ti0.1667P3O12,12.422039,0.0011358443759639048
Li0.1429As0.0756In0.0168Ti0.0084P0.1513O0.6050,Li2.8333As1.5In0.3333Ti0.1667P3O12,12.13479,0.0015394159960685362
Li0.1429As0.0924In0.0000Ti0.0084P0.1513O0.6050,Li2.8333As1.8333In0.0Ti0.1667P3O12,11.860868,
Li0.1500As0.0000In0.1000Ti0.0000P0.1500O0.6000,Li3.0As0.0In2.0Ti0.0P3O12,12.877124,
Li0.1500As0.0083In0.0917Ti0.0000P0.1500O0.6000,Li3.0As0.1667In1.8333Ti0.0P3O12,12.877124,
Li0.1500As0.0167In0.0833Ti0.0000P0.1500O0.6000,Li3.0As0.3333In1.6667Ti0.0P3O12,12.877124,
Li0.1500As0.0250In0.0750Ti0.0000P0.1500O0.6000,Li3.0As0.5In1.5Ti0.0P3O12,15.768095,
Li0.1500As0.0333In0.0667Ti0.0000P0.1500O0.6000,Li3.0As0.6667In1.3333Ti0.0P3O12,15.768095,
Li0.1500As0.0417In0.0583Ti0.0000P0.1500O0.6000,Li3.0As0.8333In1.1667Ti0.0P3O12,15.768095,
Li0.1500As0.0500In0.0500Ti0.0000P0.1500O0.6000,Li3.0As1.0In1.0Ti0.0P3O12,15.768095,
Li0.1500As0.0583In0.0417Ti0.0000P0.1500O0.6000,Li3.0As1.1667In0.8333Ti0.0P3O12,15.768095,
Li0.1500As0.0667In0.0333Ti0.0000P0.1500O0.6000,Li3.0As1.3333In0.6667Ti0.0P3O12,15.768095,
Li0.1500As0.0750In0.0250Ti0.0000P0.1500O0.6000,Li3.0As1.5In0.5Ti0.0P3O12,15.768095,
Li0.1500As0.0833In0.0167Ti0.0000P0.1500O0.6000,Li3.0As1.6667In0.3333Ti0.0P3O12,15.480846,
Li0.1500As0.0917In0.0083Ti0.0000P0.1500O0.6000,Li3.0As1.8333In0.1667Ti0.0P3O12,15.206924,
Li0.1500As0.1000In0.0000Ti0.0000P0.1500O0.6000,Li3.0As2.0In0.0Ti0.0P3O12,15.206924,
Li0.0556As0.0000Mn0.0000Ti0.1111P0.1667O0.6667,Li1.0As0.0Mn0.0Ti2.0P3O12,7.7087817,
Li0.0642As0.0000Mn0.0092Ti0.1009P0.1651O0.6605,Li1.1667As0.0Mn0.1667Ti1.8333P3O12,7.7087817,
Li0.0642As0.0092Mn0.0000Ti0.1009P0.1651O0.6605,Li1.1667As0.1667Mn0.0Ti1.8333P3O12,7.7087817,
Li0.0727As0.0000Mn0.0182Ti0.0909P0.1636O0.6545,Li1.3333As0.0Mn0.3333Ti1.6667P3O12,7.7087817,
Li0.0727As0.0182Mn0.0000Ti0.0909P0.1636O0.6545,Li1.3333As0.3333Mn0.0Ti1.6667P3O12,7.7087817,
Li0.0811As0.0000Mn0.0270Ti0.0811P0.1622O0.6486,Li1.5As0.0Mn0.5Ti1.5P3O12,7.750805,
Li0.0811As0.0090Mn0.0180Ti0.0811P0.1622O0.6486,Li1.5As0.1667Mn0.3333Ti1.5P3O12,7.750805,0.9257411160518773
Li0.0811As0.0180Mn0.0090Ti0.0811P0.1622O0.6486,Li1.5As0.3333Mn0.1667Ti1.5P3O12,7.750805,1.3465467591919535
Li0.0811As0.0270Mn0.0000Ti0.0811P0.1622O0.6486,Li1.5As0.5Mn0.0Ti1.5P3O12,7.750805,
Li0.0893As0.0000Mn0.0357Ti0.0714P0.1607O0.6429,Li1.6667As0.0Mn0.6667Ti1.3333P3O12,8.129335,
Li0.0893As0.0089Mn0.0268Ti0.0714P0.1607O0.6429,Li1.6667As0.1667Mn0.5Ti1.3333P3O12,8.129335,0.8469827492194212
Li0.0893As0.0268Mn0.0089Ti0.0714P0.1607O0.6429,Li1.6667As0.5Mn0.1667Ti1.3333P3O12,8.129335,1.401860865172927
Li0.0893As0.0357Mn0.0000Ti0.0714P0.1607O0.6429,Li1.6667As0.6667Mn0.0Ti1.3333P3O12,8.129335,
Li0.0973As0.0000Mn0.0442Ti0.0619P0.1593O0.6372,Li1.8333As0.0Mn0.8333Ti1.1667P3O12,7.1790795,
Li0.0973As0.0177Mn0.0265Ti0.0619P0.1593O0.6372,Li1.8333As0.3333Mn0.5Ti1.1667P3O12,8.129335,1.1011059489281754
Li0.0973As0.0265Mn0.0177Ti0.0619P0.1593O0.6372,Li1.8333As0.5Mn0.3333Ti1.1667P3O12,8.129335,1.2396120777716826
Li0.0973As0.0442Mn0.0000Ti0.0619P0.1593O0.6372,Li1.8333As0.8333Mn0.0Ti1.1667P3O12,8.129335,
Li0.1053As0.0000Mn0.0526Ti0.0526P0.1579O0.6316,Li2.0As0.0Mn1.0Ti1.0P3O12,7.5443654,
Li0.1053As0.0088Mn0.0439Ti0.0526P0.1579O0.6316,Li2.0As0.1667Mn0.8333Ti1.0P3O12,7.1790795,0.7339615412916665
Li0.1053As0.0175Mn0.0351Ti0.0526P0.1579O0.6316,Li2.0As0.3333Mn0.6667Ti1.0P3O12,8.129335,1.0113814852441325
Li0.1053As0.0263Mn0.0263Ti0.0526P0.1579O0.6316,Li2.0As0.5Mn0.5Ti1.0P3O12,8.129335,1.1184158057236142
Li0.1053As0.0351Mn0.0175Ti0.0526P0.1579O0.6316,Li2.0As0.6667Mn0.3333Ti1.0P3O12,8.129335,1.1969187765880385
Li0.1053As0.0439Mn0.0088Ti0.0526P0.1579O0.6316,Li2.0As0.8333Mn0.1667Ti1.0P3O12,8.129335,1.3671767996460775
Li0.1053As0.0526Mn0.0000Ti0.0526P0.1579O0.6316,Li2.0As1.0Mn0.0Ti1.0P3O12,8.129335,
Li0.1130As0.0000Mn0.0609Ti0.0435P0.1565O0.6261,Li2.1667As0.0Mn1.1667Ti0.8333P3O12,7.5443654,
Li0.1130As0.0087Mn0.0522Ti0.0435P0.1565O0.6261,Li2.1667As0.1667Mn1.0Ti0.8333P3O12,7.5443654,0.6255781566066854
Li0.1130As0.0261Mn0.0348Ti0.0435P0.1565O0.6261,Li2.1667As0.5Mn0.6667Ti0.8333P3O12,8.129335,0.000708426938130562
Li0.1130As0.0348Mn0.0261Ti0.0435P0.1565O0.6261,Li2.1667As0.6667Mn0.5Ti0.8333P3O12,8.129335,0.0007250321836261676
Li0.1130As0.0522Mn0.0087Ti0.0435P0.1565O0.6261,Li2.1667As1.0Mn0.1667Ti0.8333P3O12,8.129335,0.03322765051862145
Li0.1130As0.0609Mn0.0000Ti0.0435P0.1565O0.6261,Li2.1667As1.1667Mn0.0Ti0.8333P3O12,8.129335,
Li0.1207As0.0000Mn0.0690Ti0.0345P0.1552O0.6207,Li2.3333As0.0Mn1.3333Ti0.6667P3O12,7.5443654,
Li0.1207As0.0172Mn0.0517Ti0.0345P0.1552O0.6207,Li2.3333As0.3333Mn1.0Ti0.6667P3O12,7.5443654,0.8666491651604195
Li0.1207As0.0259Mn0.0431Ti0.0345P0.1552O0.6207,Li2.3333As0.5Mn0.8333Ti0.6667P3O12,7.1790795,0.0004874232768122608
Li0.1207As0.0431Mn0.0259Ti0.0345P0.1552O0.6207,Li2.3333As0.8333Mn0.5Ti0.6667P3O12,8.129335,0.0005140464331186877
Li0.1207As0.0517Mn0.0172Ti0.0345P0.1552O0.6207,Li2.3333As1.0Mn0.3333Ti0.6667P3O12,8.129335,0.06157601013026439
Li0.1207As0.0690Mn0.0000Ti0.0345P0.1552O0.6207,Li2.3333As1.3333Mn0.0Ti0.6667P3O12,8.129335,
Li0.1282As0.0000Mn0.0769Ti0.0256P0.1538O0.6154,Li2.5As0.0Mn1.5Ti0.5P3O12,7.5443654,
Li0.1282As0.0085Mn0.0684Ti0.0256P0.1538O0.6154,Li2.5As0.1667Mn1.3333Ti0.5P3O12,7.5443654,0.6918672954512265
Li0.1282As0.0171Mn0.0598Ti0.0256P0.1538O0.6154,Li2.5As0.3333Mn1.1667Ti0.5P3O12,7.5443654,0.924874511618739
Li0.1282As0.0256Mn0.0513Ti0.0256P0.1538O0.6154,Li2.5As0.5Mn1.0Ti0.5P3O12,7.5443654,0.9809950003504835
Li0.1282As0.0342Mn0.0427Ti0.0256P0.1538O0.6154,Li2.5As0.6667Mn0.8333Ti0.5P3O12,7.1790795,0.000318257763847726
Li0.1282As0.0427Mn0.0342Ti0.0256P0.1538O0.6154,Li2.5As0.8333Mn0.6667Ti0.5P3O12,8.129335,0.0003263168124312383
Li0.1282As0.0513Mn0.0256Ti0.0256P0.1538O0.6154,Li2.5As1.0Mn0.5Ti0.5P3O12,8.129335,0.08734564656800187
Li0.1282As0.0598Mn0.0171Ti0.0256P0.1538O0.6154,Li2.5As1.1667Mn0.3333Ti0.5P3O12,8.129335,0.07119936494308438
Li0.1282As0.0684Mn0.0085Ti0.0256P0.1538O0.6154,Li2.5As1.3333Mn0.1667Ti0.5P3O12,8.129335,0.0439168370406574
Li0.1282As0.0769Mn0.0000Ti0.0256P0.1538O0.6154,Li2.5As1.5Mn0.0Ti0.5P3O12,8.129335,
Li0.1356As0.0000Mn0.0847Ti0.0169P0.1525O0.6102,Li2.6667As0.0Mn1.6667Ti0.3333P3O12,7.480082,
Li0.1356As0.0085Mn0.0763Ti0.0169P0.1525O0.6102,Li2.6667As0.1667Mn1.5Ti0.3333P3O12,7.5443654,0.7858052608086663
Li0.1356As0.0254Mn0.0593Ti0.0169P0.1525O0.6102,Li2.6667As0.5Mn1.1667Ti0.3333P3O12,7.5443654,1.0875773666602104
Li0.1356As0.0339Mn0.0508Ti0.0169P0.1525O0.6102,Li2.6667As0.6667Mn1.0Ti0.3333P3O12,7.5443654,1.1210042961669742
Li0.1356As0.0508Mn0.0339Ti0.0169P0.1525O0.6102,Li2.6667As1.0Mn0.6667Ti0.3333P3O12,8.129335,0.1128371444480681
Li0.1356As0.0593Mn0.0254Ti0.0169P0.1525O0.6102,Li2.6667As1.1667Mn0.5Ti0.3333P3O12,8.129335,0.10141241337077947
Li0.1356As0.0763Mn0.0085Ti0.0169P0.1525O0.6102,Li2.6667As1.5Mn0.1667Ti0.3333P3O12,8.129335,0.05468068884564584
Li0.1356As0.0847Mn0.0000Ti0.0169P0.1525O0.6102,Li2.6667As1.6667Mn0.0Ti0.3333P3O12,8.129335,
Li0.1429As0.0000Mn0.0924Ti0.0084P0.1513O0.6050,Li2.8333As0.0Mn1.8333Ti0.1667P3O12,9.358569,
Li0.1429As0.0168Mn0.0756Ti0.0084P0.1513O0.6050,Li2.8333As0.3333Mn1.5Ti0.1667P3O12,9.4228525,1.2416771354842921
Li0.1429As0.0252Mn0.0672Ti0.0084P0.1513O0.6050,Li2.8333As0.5Mn1.3333Ti0.1667P3O12,9.4228525,1.3485078750497275
Li0.1429As0.0420Mn0.0504Ti0.0084P0.1513O0.6050,Li2.8333As0.8333Mn1.0Ti0.1667P3O12,9.4228525,1.4332572523399412
Li0.1429As0.0504Mn0.0420Ti0.0084P0.1513O0.6050,Li2.8333As1.0Mn0.8333Ti0.1667P3O12,9.057569,0.15298194175712307
Li0.1429As0.0672Mn0.0252Ti0.0084P0.1513O0.6050,Li2.8333As1.3333Mn0.5Ti0.1667P3O12,11.860868,0.12795452943714478
Li0.1429As0.0756Mn0.0168Ti0.0084P0.1513O0.6050,Li2.8333As1.5Mn0.3333Ti0.1667P3O12,11.860868,0.10723007037110831
Li0.1429As0.0924Mn0.0000Ti0.0084P0.1513O0.6050,Li2.8333As1.8333Mn0.0Ti0.1667P3O12,11.860868,
Li0.1500As0.0000Mn0.1000Ti0.0000P0.1500O0.6000,Li3.0As0.0Mn2.0Ti0.0P3O12,12.704627,
Li0.1500As0.0083Mn0.0917Ti0.0000P0.1500O0.6000,Li3.0As0.1667Mn1.8333Ti0.0P3O12,12.704627,
Li0.1500As0.0167Mn0.0833Ti0.0000P0.1500O0.6000,Li3.0As0.3333Mn1.6667Ti0.0P3O12,12.704627,
Li0.1500As0.0250Mn0.0750Ti0.0000P0.1500O0.6000,Li3.0As0.5Mn1.5Ti0.0P3O12,12.76891,
Li0.1500As0.0333Mn0.0667Ti0.0000P0.1500O0.6000,Li3.0As0.6667Mn1.3333Ti0.0P3O12,12.76891,
Li0.1500As0.0417Mn0.0583Ti0.0000P0.1500O0.6000,Li3.0As0.8333Mn1.1667Ti0.0P3O12,12.76891,
Li0.1500As0.0500Mn0.0500Ti0.0000P0.1500O0.6000,Li3.0As1.0Mn1.0Ti0.0P3O12,12.76891,
Li0.1500As0.0583Mn0.0417Ti0.0000P0.1500O0.6000,Li3.0As1.1667Mn0.8333Ti0.0P3O12,12.4036255,
Li0.1500As0.0667Mn0.0333Ti0.0000P0.1500O0.6000,Li3.0As1.3333Mn0.6667Ti0.0P3O12,15.206924,
Li0.1500As0.0750Mn0.0250Ti0.0000P0.1500O0.6000,Li3.0As1.5Mn0.5Ti0.0P3O12,15.206924,
Li0.1500As0.0833Mn0.0167Ti0.0000P0.1500O0.6000,Li3.0As1.6667Mn0.3333Ti0.0P3O12,15.206924,
Li0.1500As0.0917Mn0.0083Ti0.0000P0.1500O0.6000,Li3.0As1.8333Mn0.1667Ti0.0P3O12,15.206924,
Li0.1500As0.1000Mn0.0000Ti0.0000P0.1500O0.6000,Li3.0As2.0Mn0.0Ti0.0P3O12,15.206924,
Li0.0556As0.0000Ni0.0000Ti0.1111P0.1667O0.6667,Li1.0As0.0Ni0.0Ti2.0P3O12,7.7087817,
Li0.0642As0.0000Ni0.0092Ti0.1009P0.1651O0.6605,Li1.1667As0.0Ni0.1667Ti1.8333P3O12,7.7087817,
Li0.0642As0.0092Ni0.0000Ti0.1009P0.1651O0.6605,Li1.1667As0.1667Ni0.0Ti1.8333P3O12,7.7087817,
Li0.0727As0.0000Ni0.0182Ti0.0909P0.1636O0.6545,Li1.3333As0.0Ni0.3333Ti1.6667P3O12,7.7087817,
Li0.0727As0.0182Ni0.0000Ti0.0909P0.1636O0.6545,Li1.3333As0.3333Ni0.0Ti1.6667P3O12,7.7087817,
Li0.0811As0.0000Ni0.0270Ti0.0811P0.1622O0.6486,Li1.5As0.0Ni0.5Ti1.5P3O12,12.950637,
Li0.0811As0.0090Ni0.0180Ti0.0811P0.1622O0.6486,Li1.5As0.1667Ni0.3333Ti1.5P3O12,7.750805,0.5499760898502113
Li0.0811As0.0180Ni0.0090Ti0.0811P0.1622O0.6486,Li1.5As0.3333Ni0.1667Ti1.5P3O12,7.750805,0.8471682948580871
Li0.0811As0.0270Ni0.0000Ti0.0811P0.1622O0.6486,Li1.5As0.5Ni0.0Ti1.5P3O12,7.750805,
Li0.0893As0.0000Ni0.0357Ti0.0714P0.1607O0.6429,Li1.6667As0.0Ni0.6667Ti1.3333P3O12,13.329165,
Li0.0893As0.0089Ni0.0268Ti0.0714P0.1607O0.6429,Li1.6667As0.1667Ni0.5Ti1.3333P3O12,13.329165,0.4917378057835976
Li0.0893As0.0268Ni0.0089Ti0.0714P0.1607O0.6429,Li1.6667As0.5Ni0.1667Ti1.3333P3O12,8.129335,0.8526730899009052