formula,original_formula,thermal_expansion,li ion conductivity
Li0.0893Fe0.0089Co0.0268Ti0.0714P0.1607O0.6429,Li1.6667Fe0.1667Co0.5Ti1.3333P3O12,8.129335,0.2848969723890237
Li0.0893Fe0.0268Co0.0089Ti0.0714P0.1607O0.6429,Li1.6667Fe0.5Co0.1667Ti1.3333P3O12,7.0501,0.5679045157061446
Li0.0893Fe0.0357Co0.0000Ti0.0714P0.1607O0.6429,Li1.6667Fe0.6667Co0.0Ti1.3333P3O12,7.0501,
Li0.0973Fe0.0000Co0.0442Ti0.0619P0.1593O0.6372,Li1.8333Fe0.0Co0.8333Ti1.1667P3O12,8.147218,
Li0.0973Fe0.0177Co0.0265Ti0.0619P0.1593O0.6372,Li1.8333Fe0.3333Co0.5Ti1.1667P3O12,8.129335,0.38825563264228535
Li0.0973Fe0.0265Co0.0177Ti0.0619P0.1593O0.6372,Li1.8333Fe0.5Co0.3333Ti1.1667P3O12,7.0501,0.4690947743559594
Li0.0973Fe0.0442Co0.0000Ti0.0619P0.1593O0.6372,Li1.8333Fe0.8333Co0.0Ti1.1667P3O12,6.972733,
Li0.1053Fe0.0000Co0.0526Ti0.0526P0.1579O0.6316,Li2.0Fe0.0Co1.0Ti1.0P3O12,8.147218,
Li0.1053Fe0.0088Co0.0439Ti0.0526P0.1579O0.6316,Li2.0Fe0.1667Co0.8333Ti1.0P3O12,8.147218,0.24719514795781464
Li0.1053Fe0.0175Co0.0351Ti0.0526P0.1579O0.6316,Li2.0Fe0.3333Co0.6667Ti1.0P3O12,8.129335,0.3670741239603562
Li0.1053Fe0.0263Co0.0263Ti0.0526P0.1579O0.6316,Li2.0Fe0.5Co0.5Ti1.0P3O12,7.0501,0.4340908513564479
Li0.1053Fe0.0351Co0.0175Ti0.0526P0.1579O0.6316,Li2.0Fe0.6667Co0.3333Ti1.0P3O12,7.0501,0.5081439251917892
Li0.1053Fe0.0439Co0.0088Ti0.0526P0.1579O0.6316,Li2.0Fe0.8333Co0.1667Ti1.0P3O12,6.972733,0.669754399354377
Li0.1053Fe0.0526Co0.0000Ti0.0526P0.1579O0.6316,Li2.0Fe1.0Co0.0Ti1.0P3O12,7.040515,
Li0.1130Fe0.0000Co0.0609Ti0.0435P0.1565O0.6261,Li2.1667Fe0.0Co1.1667Ti0.8333P3O12,8.147218,
Li0.1130Fe0.0087Co0.0522Ti0.0435P0.1565O0.6261,Li2.1667Fe0.1667Co1.0Ti0.8333P3O12,8.147218,0.26868081067491323
Li0.1130Fe0.0261Co0.0348Ti0.0435P0.1565O0.6261,Li2.1667Fe0.5Co0.6667Ti0.8333P3O12,7.0501,0.047791730911756175
Li0.1130Fe0.0348Co0.0261Ti0.0435P0.1565O0.6261,Li2.1667Fe0.6667Co0.5Ti0.8333P3O12,7.0501,0.05414402642743764
Li0.1130Fe0.0522Co0.0087Ti0.0435P0.1565O0.6261,Li2.1667Fe1.0Co0.1667Ti0.8333P3O12,6.972733,0.3258830422708867
Li0.1130Fe0.0609Co0.0000Ti0.0435P0.1565O0.6261,Li2.1667Fe1.1667Co0.0Ti0.8333P3O12,7.040515,
Li0.1207Fe0.0000Co0.0690Ti0.0345P0.1552O0.6207,Li2.3333Fe0.0Co1.3333Ti0.6667P3O12,8.147218,
Li0.1207Fe0.0172Co0.0517Ti0.0345P0.1552O0.6207,Li2.3333Fe0.3333Co1.0Ti0.6667P3O12,8.147218,0.4278655930924704
Li0.1207Fe0.0259Co0.0431Ti0.0345P0.1552O0.6207,Li2.3333Fe0.5Co0.8333Ti0.6667P3O12,7.061528,0.043476363582607626
Li0.1207Fe0.0431Co0.0259Ti0.0345P0.1552O0.6207,Li2.3333Fe0.8333Co0.5Ti0.6667P3O12,6.972733,0.05444094735759518
Li0.1207Fe0.0517Co0.0172Ti0.0345P0.1552O0.6207,Li2.3333Fe1.0Co0.3333Ti0.6667P3O12,6.972733,0.5518996911135485
Li0.1207Fe0.0690Co0.0000Ti0.0345P0.1552O0.6207,Li2.3333Fe1.3333Co0.0Ti0.6667P3O12,7.040515,
Li0.1282Fe0.0000Co0.0769Ti0.0256P0.1538O0.6154,Li2.5Fe0.0Co1.5Ti0.5P3O12,8.147218,
Li0.1282Fe0.0085Co0.0684Ti0.0256P0.1538O0.6154,Li2.5Fe0.1667Co1.3333Ti0.5P3O12,8.147218,0.3132775263986285
Li0.1282Fe0.0171Co0.0598Ti0.0256P0.1538O0.6154,Li2.5Fe0.3333Co1.1667Ti0.5P3O12,8.147218,0.460065959714557
Li0.1282Fe0.0256Co0.0513Ti0.0256P0.1538O0.6154,Li2.5Fe0.5Co1.0Ti0.5P3O12,7.061528,0.5283498762024884
Li0.1282Fe0.0342Co0.0427Ti0.0256P0.1538O0.6154,Li2.5Fe0.6667Co0.8333Ti0.5P3O12,7.061528,0.04163949032242034
Li0.1282Fe0.0427Co0.0342Ti0.0256P0.1538O0.6154,Li2.5Fe0.8333Co0.6667Ti0.5P3O12,6.972733,0.04593167000652803
Li0.1282Fe0.0513Co0.0256Ti0.0256P0.1538O0.6154,Li2.5Fe1.0Co0.5Ti0.5P3O12,6.972733,0.7512498477574397
Li0.1282Fe0.0598Co0.0171Ti0.0256P0.1538O0.6154,Li2.5Fe1.1667Co0.3333Ti0.5P3O12,7.040515,0.5912838104055924
Li0.1282Fe0.0684Co0.0085Ti0.0256P0.1538O0.6154,Li2.5Fe1.3333Co0.1667Ti0.5P3O12,7.040515,0.3729951596368632
Li0.1282Fe0.0769Co0.0000Ti0.0256P0.1538O0.6154,Li2.5Fe1.5Co0.0Ti0.5P3O12,7.040515,
Li0.1356Fe0.0000Co0.0847Ti0.0169P0.1525O0.6102,Li2.6667Fe0.0Co1.6667Ti0.3333P3O12,8.147218,
Li0.1356Fe0.0085Co0.0763Ti0.0169P0.1525O0.6102,Li2.6667Fe0.1667Co1.5Ti0.3333P3O12,8.147218,0.3605180106914174
Li0.1356Fe0.0254Co0.0593Ti0.0169P0.1525O0.6102,Li2.6667Fe0.5Co1.1667Ti0.3333P3O12,7.061528,0.5971779106679433
Li0.1356Fe0.0339Co0.0508Ti0.0169P0.1525O0.6102,Li2.6667Fe0.6667Co1.0Ti0.3333P3O12,7.061528,0.6560302372347577
Li0.1356Fe0.0508Co0.0339Ti0.0169P0.1525O0.6102,Li2.6667Fe1.0Co0.6667Ti0.3333P3O12,6.972733,0.9254281118837395
Li0.1356Fe0.0593Co0.0254Ti0.0169P0.1525O0.6102,Li2.6667Fe1.1667Co0.5Ti0.3333P3O12,7.040515,0.8115407668281986
Li0.1356Fe0.0763Co0.0085Ti0.0169P0.1525O0.6102,Li2.6667Fe1.5Co0.1667Ti0.3333P3O12,7.040515,0.41977663804692245
Li0.1356Fe0.0847Co0.0000Ti0.0169P0.1525O0.6102,Li2.6667Fe1.6667Co0.0Ti0.3333P3O12,7.040515,
Li0.1429Fe0.0000Co0.0924Ti0.0084P0.1513O0.6050,Li2.8333Fe0.0Co1.8333Ti0.1667P3O12,11.87875,
Li0.1429Fe0.0168Co0.0756Ti0.0084P0.1513O0.6050,Li2.8333Fe0.3333Co1.5Ti0.1667P3O12,11.87875,0.6221279985759783
Li0.1429Fe0.0252Co0.0672Ti0.0084P0.1513O0.6050,Li2.8333Fe0.5Co1.3333Ti0.1667P3O12,10.793062,0.7147475559823091
Li0.1429Fe0.0420Co0.0504Ti0.0084P0.1513O0.6050,Li2.8333Fe0.8333Co1.0Ti0.1667P3O12,10.715696,0.8356432548719519
Li0.1429Fe0.0504Co0.0420Ti0.0084P0.1513O0.6050,Li2.8333Fe1.0Co0.8333Ti0.1667P3O12,10.715696,1.1343494531061864
Li0.1429Fe0.0672Co0.0252Ti0.0084P0.1513O0.6050,Li2.8333Fe1.3333Co0.5Ti0.1667P3O12,10.772052,0.9237769296469258
Li0.1429Fe0.0756Co0.0168Ti0.0084P0.1513O0.6050,Li2.8333Fe1.5Co0.3333Ti0.1667P3O12,10.772052,0.759377767434196
Li0.1429Fe0.0924Co0.0000Ti0.0084P0.1513O0.6050,Li2.8333Fe1.8333Co0.0Ti0.1667P3O12,10.772052,
Li0.1500Fe0.0000Co0.1000Ti0.0000P0.1500O0.6000,Li3.0Fe0.0Co2.0Ti0.0P3O12,15.21023,
Li0.1500Fe0.0083Co0.0917Ti0.0000P0.1500O0.6000,Li3.0Fe0.1667Co1.8333Ti0.0P3O12,15.224806,
Li0.1500Fe0.0167Co0.0833Ti0.0000P0.1500O0.6000,Li3.0Fe0.3333Co1.6667Ti0.0P3O12,15.224806,
Li0.1500Fe0.0250Co0.0750Ti0.0000P0.1500O0.6000,Li3.0Fe0.5Co1.5Ti0.0P3O12,13.353064,
Li0.1500Fe0.0333Co0.0667Ti0.0000P0.1500O0.6000,Li3.0Fe0.6667Co1.3333Ti0.0P3O12,13.353064,
Li0.1500Fe0.0417Co0.0583Ti0.0000P0.1500O0.6000,Li3.0Fe0.8333Co1.1667Ti0.0P3O12,13.275698,
Li0.1500Fe0.0500Co0.0500Ti0.0000P0.1500O0.6000,Li3.0Fe1.0Co1.0Ti0.0P3O12,13.275698,
Li0.1500Fe0.0583Co0.0417Ti0.0000P0.1500O0.6000,Li3.0Fe1.1667Co0.8333Ti0.0P3O12,13.34348,
Li0.1500Fe0.0667Co0.0333Ti0.0000P0.1500O0.6000,Li3.0Fe1.3333Co0.6667Ti0.0P3O12,13.332053,
Li0.1500Fe0.0750Co0.0250Ti0.0000P0.1500O0.6000,Li3.0Fe1.5Co0.5Ti0.0P3O12,13.332053,
Li0.1500Fe0.0833Co0.0167Ti0.0000P0.1500O0.6000,Li3.0Fe1.6667Co0.3333Ti0.0P3O12,13.332053,
Li0.1500Fe0.0917Co0.0083Ti0.0000P0.1500O0.6000,Li3.0Fe1.8333Co0.1667Ti0.0P3O12,13.332053,
Li0.1500Fe0.1000Co0.0000Ti0.0000P0.1500O0.6000,Li3.0Fe2.0Co0.0Ti0.0P3O12,13.206304,
Li0.0556Fe0.0000Cr0.0000Ti0.1111P0.1667O0.6667,Li1.0Fe0.0Cr0.0Ti2.0P3O12,7.7087817,
Li0.0642Fe0.0000Cr0.0092Ti0.1009P0.1651O0.6605,Li1.1667Fe0.0Cr0.1667Ti1.8333P3O12,7.7087817,
Li0.0642Fe0.0092Cr0.0000Ti0.1009P0.1651O0.6605,Li1.1667Fe0.1667Cr0.0Ti1.8333P3O12,7.7087817,
Li0.0727Fe0.0000Cr0.0182Ti0.0909P0.1636O0.6545,Li1.3333Fe0.0Cr0.3333Ti1.6667P3O12,7.7087817,
Li0.0727Fe0.0182Cr0.0000Ti0.0909P0.1636O0.6545,Li1.3333Fe0.3333Cr0.0Ti1.6667P3O12,7.7087817,
Li0.0811Fe0.0000Cr0.0270Ti0.0811P0.1622O0.6486,Li1.5Fe0.0Cr0.5Ti1.5P3O12,7.750805,
Li0.0811Fe0.0090Cr0.0180Ti0.0811P0.1622O0.6486,Li1.5Fe0.1667Cr0.3333Ti1.5P3O12,7.750805,0.2214684570633255
Li0.0811Fe0.0180Cr0.0090Ti0.0811P0.1622O0.6486,Li1.5Fe0.3333Cr0.1667Ti1.5P3O12,7.750805,0.37053627308983555
Li0.0811Fe0.0270Cr0.0000Ti0.0811P0.1622O0.6486,Li1.5Fe0.5Cr0.0Ti1.5P3O12,6.671572,
Li0.0893Fe0.0000Cr0.0357Ti0.0714P0.1607O0.6429,Li1.6667Fe0.0Cr0.6667Ti1.3333P3O12,8.129335,
Li0.0893Fe0.0089Cr0.0268Ti0.0714P0.1607O0.6429,Li1.6667Fe0.1667Cr0.5Ti1.3333P3O12,8.129335,0.19769121383052496
Li0.0893Fe0.0268Cr0.0089Ti0.0714P0.1607O0.6429,Li1.6667Fe0.5Cr0.1667Ti1.3333P3O12,7.0501,0.4296129687891017
Li0.0893Fe0.0357Cr0.0000Ti0.0714P0.1607O0.6429,Li1.6667Fe0.6667Cr0.0Ti1.3333P3O12,7.0501,
Li0.0973Fe0.0000Cr0.0442Ti0.0619P0.1593O0.6372,Li1.8333Fe0.0Cr0.8333Ti1.1667P3O12,7.845156,
Li0.0973Fe0.0177Cr0.0265Ti0.0619P0.1593O0.6372,Li1.8333Fe0.3333Cr0.5Ti1.1667P3O12,8.129335,0.2867692919304319
Li0.0973Fe0.0265Cr0.0177Ti0.0619P0.1593O0.6372,Li1.8333Fe0.5Cr0.3333Ti1.1667P3O12,7.0501,0.3726144878879342
Li0.0973Fe0.0442Cr0.0000Ti0.0619P0.1593O0.6372,Li1.8333Fe0.8333Cr0.0Ti1.1667P3O12,6.972733,
Li0.1053Fe0.0000Cr0.0526Ti0.0526P0.1579O0.6316,Li2.0Fe0.0Cr1.0Ti1.0P3O12,7.845156,
Li0.1053Fe0.0088Cr0.0439Ti0.0526P0.1579O0.6316,Li2.0Fe0.1667Cr0.8333Ti1.0P3O12,7.845156,0.17707247760679876
Li0.1053Fe0.0175Cr0.0351Ti0.0526P0.1579O0.6316,Li2.0Fe0.3333Cr0.6667Ti1.0P3O12,8.129335,0.26884325750760146
Li0.1053Fe0.0263Cr0.0263Ti0.0526P0.1579O0.6316,Li2.0Fe0.5Cr0.5Ti1.0P3O12,7.0501,0.33284904406081905
Li0.1053Fe0.0351Cr0.0175Ti0.0526P0.1579O0.6316,Li2.0Fe0.6667Cr0.3333Ti1.0P3O12,7.0501,0.40991542688686605
Li0.1053Fe0.0439Cr0.0088Ti0.0526P0.1579O0.6316,Li2.0Fe0.8333Cr0.1667Ti1.0P3O12,6.972733,0.5198753538823323
Li0.1053Fe0.0526Cr0.0000Ti0.0526P0.1579O0.6316,Li2.0Fe1.0Cr0.0Ti1.0P3O12,7.040515,
Li0.1130Fe0.0000Cr0.0609Ti0.0435P0.1565O0.6261,Li2.1667Fe0.0Cr1.1667Ti0.8333P3O12,13.286617,
Li0.1130Fe0.0087Cr0.0522Ti0.0435P0.1565O0.6261,Li2.1667Fe0.1667Cr1.0Ti0.8333P3O12,7.845156,0.27464667587345093
Li0.1130Fe0.0261Cr0.0348Ti0.0435P0.1565O0.6261,Li2.1667Fe0.5Cr0.6667Ti0.8333P3O12,7.0501,0.053656797463984426
Li0.1130Fe0.0348Cr0.0261Ti0.0435P0.1565O0.6261,Li2.1667Fe0.6667Cr0.5Ti0.8333P3O12,7.0501,0.060816293335696076
Li0.1130Fe0.0522Cr0.0087Ti0.0435P0.1565O0.6261,Li2.1667Fe1.0Cr0.1667Ti0.8333P3O12,6.972733,0.09803554172368538
Li0.1130Fe0.0609Cr0.0000Ti0.0435P0.1565O0.6261,Li2.1667Fe1.1667Cr0.0Ti0.8333P3O12,7.040515,
Li0.1207Fe0.0000Cr0.0690Ti0.0345P0.1552O0.6207,Li2.3333Fe0.0Cr1.3333Ti0.6667P3O12,13.286617,
Li0.1207Fe0.0172Cr0.0517Ti0.0345P0.1552O0.6207,Li2.3333Fe0.3333Cr1.0Ti0.6667P3O12,7.845156,0.4243655738133692
Li0.1207Fe0.0259Cr0.0431Ti0.0345P0.1552O0.6207,Li2.3333Fe0.5Cr0.8333Ti0.6667P3O12,6.7659235,0.05062919427774013
Li0.1207Fe0.0431Cr0.0259Ti0.0345P0.1552O0.6207,Li2.3333Fe0.8333Cr0.5Ti0.6667P3O12,6.972733,0.06420932641588623
Li0.1207Fe0.0517Cr0.0172Ti0.0345P0.1552O0.6207,Li2.3333Fe1.0Cr0.3333Ti0.6667P3O12,6.972733,0.20143197364388676
Li0.1207Fe0.0690Cr0.0000Ti0.0345P0.1552O0.6207,Li2.3333Fe1.3333Cr0.0Ti0.6667P3O12,7.040515,
Li0.1282Fe0.0000Cr0.0769Ti0.0256P0.1538O0.6154,Li2.5Fe0.0Cr1.5Ti0.5P3O12,13.286617,
Li0.1282Fe0.0085Cr0.0684Ti0.0256P0.1538O0.6154,Li2.5Fe0.1667Cr1.3333Ti0.5P3O12,13.286617,0.31986483452179865
Li0.1282Fe0.0171Cr0.0598Ti0.0256P0.1538O0.6154,Li2.5Fe0.3333Cr1.1667Ti0.5P3O12,7.845156,0.4566919789505244
Li0.1282Fe0.0256Cr0.0513Ti0.0256P0.1538O0.6154,Li2.5Fe0.5Cr1.0Ti0.5P3O12,6.7659235,0.5327417389775785
Li0.1282Fe0.0342Cr0.0427Ti0.0256P0.1538O0.6154,Li2.5Fe0.6667Cr0.8333Ti0.5P3O12,6.7659235,0.05411246874802801
Li0.1282Fe0.0427Cr0.0342Ti0.0256P0.1538O0.6154,Li2.5Fe0.8333Cr0.6667Ti0.5P3O12,6.972733,0.06001808938713455
Li0.1282Fe0.0513Cr0.0256Ti0.0256P0.1538O0.6154,Li2.5Fe1.0Cr0.5Ti0.5P3O12,6.972733,0.30345632569431813
Li0.1282Fe0.0598Cr0.0171Ti0.0256P0.1538O0.6154,Li2.5Fe1.1667Cr0.3333Ti0.5P3O12,7.040515,0.21852932586224047
Li0.1282Fe0.0684Cr0.0085Ti0.0256P0.1538O0.6154,Li2.5Fe1.3333Cr0.1667Ti0.5P3O12,7.040515,0.12113625024141417
Li0.1282Fe0.0769Cr0.0000Ti0.0256P0.1538O0.6154,Li2.5Fe1.5Cr0.0Ti0.5P3O12,7.040515,
Li0.1356Fe0.0000Cr0.0847Ti0.0169P0.1525O0.6102,Li2.6667Fe0.0Cr1.6667Ti0.3333P3O12,13.699678,
Li0.1356Fe0.0085Cr0.0763Ti0.0169P0.1525O0.6102,Li2.6667Fe0.1667Cr1.5Ti0.3333P3O12,13.286617,0.36411496361261014
Li0.1356Fe0.0254Cr0.0593Ti0.0169P0.1525O0.6102,Li2.6667Fe0.5Cr1.1667Ti0.3333P3O12,6.7659235,0.5915695290814745
Li0.1356Fe0.0339Cr0.0508Ti0.0169P0.1525O0.6102,Li2.6667Fe0.6667Cr1.0Ti0.3333P3O12,6.7659235,0.6472863221358028
Li0.1356Fe0.0508Cr0.0339Ti0.0169P0.1525O0.6102,Li2.6667Fe1.0Cr0.6667Ti0.3333P3O12,6.972733,0.39538887093217945
Li0.1356Fe0.0593Cr0.0254Ti0.0169P0.1525O0.6102,Li2.6667Fe1.1667Cr0.5Ti0.3333P3O12,7.040515,0.3277203477308726
Li0.1356Fe0.0763Cr0.0085Ti0.0169P0.1525O0.6102,Li2.6667Fe1.5Cr0.1667Ti0.3333P3O12,7.040515,0.13895021432649976
Li0.1356Fe0.0847Cr0.0000Ti0.0169P0.1525O0.6102,Li2.6667Fe1.6667Cr0.0Ti0.3333P3O12,7.040515,
Li0.1429Fe0.0000Cr0.0924Ti0.0084P0.1513O0.6050,Li2.8333Fe0.0Cr1.8333Ti0.1667P3O12,17.431204,
Li0.1429Fe0.0168Cr0.0756Ti0.0084P0.1513O0.6050,Li2.8333Fe0.3333Cr1.5Ti0.1667P3O12,17.018145,0.6277713548524584
Li0.1429Fe0.0252Cr0.0672Ti0.0084P0.1513O0.6050,Li2.8333Fe0.5Cr1.3333Ti0.1667P3O12,15.938914,0.7354014096355336
Li0.1429Fe0.0420Cr0.0504Ti0.0084P0.1513O0.6050,Li2.8333Fe0.8333Cr1.0Ti0.1667P3O12,10.420093,0.8312398819358936
Li0.1429Fe0.0504Cr0.0420Ti0.0084P0.1513O0.6050,Li2.8333Fe1.0Cr0.8333Ti0.1667P3O12,10.420093,0.5204104694814341
Li0.1429Fe0.0672Cr0.0252Ti0.0084P0.1513O0.6050,Li2.8333Fe1.3333Cr0.5Ti0.1667P3O12,10.772052,0.38610819814941705
Li0.1429Fe0.0756Cr0.0168Ti0.0084P0.1513O0.6050,Li2.8333Fe1.5Cr0.3333Ti0.1667P3O12,10.772052,0.2897096343559905
Li0.1429Fe0.0924Cr0.0000Ti0.0084P0.1513O0.6050,Li2.8333Fe1.8333Cr0.0Ti0.1667P3O12,10.772052,
Li0.1500Fe0.0000Cr0.1000Ti0.0000P0.1500O0.6000,Li3.0Fe0.0Cr2.0Ti0.0P3O12,17.903326,
Li0.1500Fe0.0083Cr0.0917Ti0.0000P0.1500O0.6000,Li3.0Fe0.1667Cr1.8333Ti0.0P3O12,17.903326,
Li0.1500Fe0.0167Cr0.0833Ti0.0000P0.1500O0.6000,Li3.0Fe0.3333Cr1.6667Ti0.0P3O12,17.903326,
Li0.1500Fe0.0250Cr0.0750Ti0.0000P0.1500O0.6000,Li3.0Fe0.5Cr1.5Ti0.0P3O12,15.624984,
Li0.1500Fe0.0333Cr0.0667Ti0.0000P0.1500O0.6000,Li3.0Fe0.6667Cr1.3333Ti0.0P3O12,15.624984,
Li0.1500Fe0.0417Cr0.0583Ti0.0000P0.1500O0.6000,Li3.0Fe0.8333Cr1.1667Ti0.0P3O12,12.980094,
Li0.1500Fe0.0500Cr0.0500Ti0.0000P0.1500O0.6000,Li3.0Fe1.0Cr1.0Ti0.0P3O12,12.980094,
Li0.1500Fe0.0583Cr0.0417Ti0.0000P0.1500O0.6000,Li3.0Fe1.1667Cr0.8333Ti0.0P3O12,13.047876,
Li0.1500Fe0.0667Cr0.0333Ti0.0000P0.1500O0.6000,Li3.0Fe1.3333Cr0.6667Ti0.0P3O12,13.332053,
Li0.1500Fe0.0750Cr0.0250Ti0.0000P0.1500O0.6000,Li3.0Fe1.5Cr0.5Ti0.0P3O12,13.332053,
Li0.1500Fe0.0833Cr0.0167Ti0.0000P0.1500O0.6000,Li3.0Fe1.6667Cr0.3333Ti0.0P3O12,13.332053,
Li0.1500Fe0.0917Cr0.0083Ti0.0000P0.1500O0.6000,Li3.0Fe1.8333Cr0.1667Ti0.0P3O12,13.332053,
Li0.1500Fe0.1000Cr0.0000Ti0.0000P0.1500O0.6000,Li3.0Fe2.0Cr0.0Ti0.0P3O12,13.206304,
Li0.0556Fe0.0000Ti0.1111P0.1667O0.6667,Li1.0Fe0.0Fe0.0Ti2.0P3O12,7.7087817,
Li0.0642Fe0.0092Ti0.1009P0.1651O0.6605,Li1.1667Fe0.0Fe0.1667Ti1.8333P3O12,7.7087817,0.24204313813116887
Li0.0642Fe0.0092Ti0.1009P0.1651O0.6605,Li1.1667Fe0.1667Fe0.0Ti1.8333P3O12,7.7087817,
Li0.0727Fe0.0182Ti0.0909P0.1636O0.6545,Li1.3333Fe0.0Fe0.3333Ti1.6667P3O12,7.7087817,0.33296290272201823
Li0.0727Fe0.0182Ti0.0909P0.1636O0.6545,Li1.3333Fe0.3333Fe0.0Ti1.6667P3O12,7.7087817,
Li0.0811Fe0.0270Ti0.0811P0.1622O0.6486,Li1.5Fe0.0Fe0.5Ti1.5P3O12,6.671572,0.3826876931704219
Li0.0811Fe0.0270Ti0.0811P0.1622O0.6486,Li1.5Fe0.1667Fe0.3333Ti1.5P3O12,6.671572,0.3286281772576029
Li0.0811Fe0.0270Ti0.0811P0.1622O0.6486,Li1.5Fe0.3333Fe0.1667Ti1.5P3O12,6.671572,0.23519508997678965
Li0.0811Fe0.0270Ti0.0811P0.1622O0.6486,Li1.5Fe0.5Fe0.0Ti1.5P3O12,6.671572,
Li0.0893Fe0.0357Ti0.0714P0.1607O0.6429,Li1.6667Fe0.0Fe0.6667Ti1.3333P3O12,7.0501,0.438959391343242
Li0.0893Fe0.0357Ti0.0714P0.1607O0.6429,Li1.6667Fe0.1667Fe0.5Ti1.3333P3O12,7.0501,0.378812424677828
Li0.0893Fe0.0357Ti0.0714P0.1607O0.6429,Li1.6667Fe0.5Fe0.1667Ti1.3333P3O12,7.0501,0.23085190568093694
Li0.0893Fe0.0357Ti0.0714P0.1607O0.6429,Li1.6667Fe0.6667Fe0.0Ti1.3333P3O12,7.0501,
Li0.0973Fe0.0442Ti0.0619P0.1593O0.6372,Li1.8333Fe0.0Fe0.8333Ti1.1667P3O12,6.972733,0.4954218286436679
Li0.0973Fe0.0442Ti0.0619P0.1593O0.6372,Li1.8333Fe0.3333Fe0.5Ti1.1667P3O12,6.972733,0.37433119096560447
Li0.0973Fe0.0442Ti0.0619P0.1593O0.6372,Li1.8333Fe0.5Fe0.3333Ti1.1667P3O12,6.972733,0.3212118746331956
Li0.0973Fe0.0442Ti0.0619P0.1593O0.6372,Li1.8333Fe0.8333Fe0.0Ti1.1667P3O12,6.972733,
Li0.1053Fe0.0526Ti0.0526P0.1579O0.6316,Li2.0Fe0.0Fe1.0Ti1.0P3O12,7.040515,0.0005306459793822931
Li0.1053Fe0.0526Ti0.0526P0.1579O0.6316,Li2.0Fe0.1667Fe0.8333Ti1.0P3O12,7.040515,0.48896834890806934
Li0.1053Fe0.0526Ti0.0526P0.1579O0.6316,Li2.0Fe0.3333Fe0.6667Ti1.0P3O12,7.040515,0.4268237203951446
Li0.1053Fe0.0526Ti0.0526P0.1579O0.6316,Li2.0Fe0.5Fe0.5Ti1.0P3O12,7.040515,0.37055478439063466
Li0.1053Fe0.0526Ti0.0526P0.1579O0.6316,Li2.0Fe0.6667Fe0.3333Ti1.0P3O12,7.040515,0.3175924393478173
Li0.1053Fe0.0526Ti0.0526P0.1579O0.6316,Li2.0Fe0.8333Fe0.1667Ti1.0P3O12,7.040515,0.223307065247239
Li0.1053Fe0.0526Ti0.0526P0.1579O0.6316,Li2.0Fe1.0Fe0.0Ti1.0P3O12,7.040515,
Li0.1130Fe0.0609Ti0.0435P0.1565O0.6261,Li2.1667Fe0.0Fe1.1667Ti0.8333P3O12,7.040515,0.06710421526967636
Li0.1130Fe0.0609Ti0.0435P0.1565O0.6261,Li2.1667Fe0.1667Fe1.0Ti0.8333P3O12,7.040515,0.06699570228688558
Li0.1130Fe0.0609Ti0.0435P0.1565O0.6261,Li2.1667Fe0.5Fe0.6667Ti0.8333P3O12,7.040515,0.2686126744882402
Li0.1130Fe0.0609Ti0.0435P0.1565O0.6261,Li2.1667Fe0.6667Fe0.5Ti0.8333P3O12,7.040515,0.2475031183030518
Li0.1130Fe0.0609Ti0.0435P0.1565O0.6261,Li2.1667Fe1.0Fe0.1667Ti0.8333P3O12,7.040515,0.16359971734674314
Li0.1130Fe0.0609Ti0.0435P0.1565O0.6261,Li2.1667Fe1.1667Fe0.0Ti0.8333P3O12,7.040515,
Li0.1207Fe0.0690Ti0.0345P0.1552O0.6207,Li2.3333Fe0.0Fe1.3333Ti0.6667P3O12,7.040515,0.0530041556938576
Li0.1207Fe0.0690Ti0.0345P0.1552O0.6207,Li2.3333Fe0.3333Fe1.0Ti0.6667P3O12,7.040515,0.05252107129498623
Li0.1207Fe0.0690Ti0.0345P0.1552O0.6207,Li2.3333Fe0.5Fe0.8333Ti0.6667P3O12,7.040515,0.30676962327183294
Li0.1207Fe0.0690Ti0.0345P0.1552O0.6207,Li2.3333Fe0.8333Fe0.5Ti0.6667P3O12,7.040515,0.2653845098121355
Li0.1207Fe0.0690Ti0.0345P0.1552O0.6207,Li2.3333Fe1.0Fe0.3333Ti0.6667P3O12,7.040515,0.24047498094850317
Li0.1207Fe0.0690Ti0.0345P0.1552O0.6207,Li2.3333Fe1.3333Fe0.0Ti0.6667P3O12,7.040515,
Li0.1282Fe0.0769Ti0.0256P0.1538O0.6154,Li2.5Fe0.0Fe1.5Ti0.5P3O12,7.040515,0.03898577239651727
Li0.1282Fe0.0769Ti0.0256P0.1538O0.6154,Li2.5Fe0.1667Fe1.3333Ti0.5P3O12,7.040515,0.038702242517519525
Li0.1282Fe0.0769Ti0.0256P0.1538O0.6154,Li2.5Fe0.3333Fe1.1667Ti0.5P3O12,7.040515,0.0384068984393915
Li0.1282Fe0.0769Ti0.0256P0.1538O0.6154,Li2.5Fe0.5Fe1.0Ti0.5P3O12,7.040515,0.038110125768125364
Li0.1282Fe0.0769Ti0.0256P0.1538O0.6154,Li2.5Fe0.6667Fe0.8333Ti0.5P3O12,7.040515,0.3356725756756383
Li0.1282Fe0.0769Ti0.0256P0.1538O0.6154,Li2.5Fe0.8333Fe0.6667Ti0.5P3O12,7.040515,0.31725733807874607
Li0.1282Fe0.0769Ti0.0256P0.1538O0.6154,Li2.5Fe1.0Fe0.5Ti0.5P3O12,7.040515,0.29273331375324474
Li0.1282Fe0.0769Ti0.0256P0.1538O0.6154,Li2.5Fe1.1667Fe0.3333Ti0.5P3O12,7.040515,0.2655261588927768
Li0.1282Fe0.0769Ti0.0256P0.1538O0.6154,Li2.5Fe1.3333Fe0.1667Ti0.5P3O12,7.040515,0.19370192288709184
Li0.1282Fe0.0769Ti0.0256P0.1538O0.6154,Li2.5Fe1.5Fe0.0Ti0.5P3O12,7.040515,
Li0.1356Fe0.0847Ti0.0169P0.1525O0.6102,Li2.6667Fe0.0Fe1.6667Ti0.3333P3O12,7.040515,0.024805143282253837
Li0.1356Fe0.0847Ti0.0169P0.1525O0.6102,Li2.6667Fe0.1667Fe1.5Ti0.3333P3O12,7.040515,0.024716570163934734
Li0.1356Fe0.0847Ti0.0169P0.1525O0.6102,Li2.6667Fe0.5Fe1.1667Ti0.3333P3O12,7.040515,0.02451290375208493
Li0.1356Fe0.0847Ti0.0169P0.1525O0.6102,Li2.6667Fe0.6667Fe1.0Ti0.3333P3O12,7.040515,0.024404250657076635
Li0.1356Fe0.0847Ti0.0169P0.1525O0.6102,Li2.6667Fe1.0Fe0.6667Ti0.3333P3O12,7.040515,0.36812592890247603
Li0.1356Fe0.0847Ti0.0169P0.1525O0.6102,Li2.6667Fe1.1667Fe0.5Ti0.3333P3O12,7.040515,0.3437352941193802
Li0.1356Fe0.0847Ti0.0169P0.1525O0.6102,Li2.6667Fe1.5Fe0.1667Ti0.3333P3O12,7.040515,0.2225798169949786
Li0.1356Fe0.0847Ti0.0169P0.1525O0.6102,Li2.6667Fe1.6667Fe0.0Ti0.3333P3O12,7.040515,
Li0.1429Fe0.0924Ti0.0084P0.1513O0.6050,Li2.8333Fe0.0Fe1.8333Ti0.1667P3O12,10.772052,0.011796716186838883
Li0.1429Fe0.0924Ti0.0084P0.1513O0.6050,Li2.8333Fe0.3333Fe1.5Ti0.1667P3O12,10.772052,0.011657887848686703
Li0.1429Fe0.0924Ti0.0084P0.1513O0.6050,Li2.8333Fe0.5Fe1.3333Ti0.1667P3O12,10.772052,0.011606494768920245
Li0.1429Fe0.0924Ti0.0084P0.1513O0.6050,Li2.8333Fe0.8333Fe1.0Ti0.1667P3O12,10.772052,0.011494513852542503
Li0.1429Fe0.0924Ti0.0084P0.1513O0.6050,Li2.8333Fe1.0Fe0.8333Ti0.1667P3O12,10.772052,0.48116616865688955
Li0.1429Fe0.0924Ti0.0084P0.1513O0.6050,Li2.8333Fe1.3333Fe0.5Ti0.1667P3O12,10.772052,0.4322459989968288
Li0.1429Fe0.0924Ti0.0084P0.1513O0.6050,Li2.8333Fe1.5Fe0.3333Ti0.1667P3O12,10.772052,0.3915212314550684