formula,original_formula,thermal_expansion,li ion conductivity
Li0.0973In0.0442Hf0.0000Ti0.0619P0.1593O0.6372,Li1.8333In0.8333Hf0.0Ti1.1667P3O12,8.690509,
Li0.1053In0.0000Hf0.0526Ti0.0526P0.1579O0.6316,Li2.0In0.0Hf1.0Ti1.0P3O12,8.1233835,
Li0.1053In0.0088Hf0.0439Ti0.0526P0.1579O0.6316,Li2.0In0.1667Hf0.8333Ti1.0P3O12,8.1233835,0.04019003153868645
Li0.1053In0.0175Hf0.0351Ti0.0526P0.1579O0.6316,Li2.0In0.3333Hf0.6667Ti1.0P3O12,8.087626,0.043168942801075826
Li0.1053In0.0263Hf0.0263Ti0.0526P0.1579O0.6316,Li2.0In0.5Hf0.5Ti1.0P3O12,8.690509,0.04358193864921914
Li0.1053In0.0351Hf0.0175Ti0.0526P0.1579O0.6316,Li2.0In0.6667Hf0.3333Ti1.0P3O12,8.690509,0.04557169908266076
Li0.1053In0.0439Hf0.0088Ti0.0526P0.1579O0.6316,Li2.0In0.8333Hf0.1667Ti1.0P3O12,8.690509,0.05428599533044875
Li0.1053In0.0526Hf0.0000Ti0.0526P0.1579O0.6316,Li2.0In1.0Hf0.0Ti1.0P3O12,8.690509,
Li0.1130In0.0000Hf0.0609Ti0.0435P0.1565O0.6261,Li2.1667In0.0Hf1.1667Ti0.8333P3O12,7.980404,
Li0.1130In0.0087Hf0.0522Ti0.0435P0.1565O0.6261,Li2.1667In0.1667Hf1.0Ti0.8333P3O12,8.1233835,0.013968390575338174
Li0.1130In0.0261Hf0.0348Ti0.0435P0.1565O0.6261,Li2.1667In0.5Hf0.6667Ti0.8333P3O12,8.386642,5.2501641483743014e-06
Li0.1130In0.0348Hf0.0261Ti0.0435P0.1565O0.6261,Li2.1667In0.6667Hf0.5Ti0.8333P3O12,8.690509,5.4758913060535545e-06
Li0.1130In0.0522Hf0.0087Ti0.0435P0.1565O0.6261,Li2.1667In1.0Hf0.1667Ti0.8333P3O12,8.690509,0.027676064877863338
Li0.1130In0.0609Hf0.0000Ti0.0435P0.1565O0.6261,Li2.1667In1.1667Hf0.0Ti0.8333P3O12,8.690509,
Li0.1207In0.0000Hf0.0690Ti0.0345P0.1552O0.6207,Li2.3333In0.0Hf1.3333Ti0.6667P3O12,7.980404,
Li0.1207In0.0172Hf0.0517Ti0.0345P0.1552O0.6207,Li2.3333In0.3333Hf1.0Ti0.6667P3O12,8.087626,0.01736910997608978
Li0.1207In0.0259Hf0.0431Ti0.0345P0.1552O0.6207,Li2.3333In0.5Hf0.8333Ti0.6667P3O12,8.386642,3.815140567397046e-06
Li0.1207In0.0431Hf0.0259Ti0.0345P0.1552O0.6207,Li2.3333In0.8333Hf0.5Ti0.6667P3O12,8.690509,4.082288936596489e-06
Li0.1207In0.0517Hf0.0172Ti0.0345P0.1552O0.6207,Li2.3333In1.0Hf0.3333Ti0.6667P3O12,8.690509,0.033715096107144904
Li0.1207In0.0690Hf0.0000Ti0.0345P0.1552O0.6207,Li2.3333In1.3333Hf0.0Ti0.6667P3O12,8.690509,
Li0.1282In0.0000Hf0.0769Ti0.0256P0.1538O0.6154,Li2.5In0.0Hf1.5Ti0.5P3O12,7.980404,
Li0.1282In0.0085Hf0.0684Ti0.0256P0.1538O0.6154,Li2.5In0.1667Hf1.3333Ti0.5P3O12,7.980404,0.01658316549932043
Li0.1282In0.0171Hf0.0598Ti0.0256P0.1538O0.6154,Li2.5In0.3333Hf1.1667Ti0.5P3O12,7.957001,0.018921127882705533
Li0.1282In0.0256Hf0.0513Ti0.0256P0.1538O0.6154,Li2.5In0.5Hf1.0Ti0.5P3O12,8.386642,0.02035499490460471
Li0.1282In0.0342Hf0.0427Ti0.0256P0.1538O0.6154,Li2.5In0.6667Hf0.8333Ti0.5P3O12,8.386642,2.7551938984359844e-06
Li0.1282In0.0427Hf0.0342Ti0.0256P0.1538O0.6154,Li2.5In0.8333Hf0.6667Ti0.5P3O12,8.386642,2.829910431240153e-06
Li0.1282In0.0513Hf0.0256Ti0.0256P0.1538O0.6154,Li2.5In1.0Hf0.5Ti0.5P3O12,8.690509,0.0375471806347866
Li0.1282In0.0598Hf0.0171Ti0.0256P0.1538O0.6154,Li2.5In1.1667Hf0.3333Ti0.5P3O12,8.690509,0.03341911332338996
Li0.1282In0.0684Hf0.0085Ti0.0256P0.1538O0.6154,Li2.5In1.3333Hf0.1667Ti0.5P3O12,8.690509,0.02715687867158689
Li0.1282In0.0769Hf0.0000Ti0.0256P0.1538O0.6154,Li2.5In1.5Hf0.0Ti0.5P3O12,5.7995377,
Li0.1356In0.0000Hf0.0847Ti0.0169P0.1525O0.6102,Li2.6667In0.0Hf1.6667Ti0.3333P3O12,7.980404,
Li0.1356In0.0085Hf0.0763Ti0.0169P0.1525O0.6102,Li2.6667In0.1667Hf1.5Ti0.3333P3O12,7.980404,0.01902123455573047
Li0.1356In0.0254Hf0.0593Ti0.0169P0.1525O0.6102,Li2.6667In0.5Hf1.1667Ti0.3333P3O12,8.256017,0.02250794939233157
Li0.1356In0.0339Hf0.0508Ti0.0169P0.1525O0.6102,Li2.6667In0.6667Hf1.0Ti0.3333P3O12,8.386642,0.02380587719959651
Li0.1356In0.0508Hf0.0339Ti0.0169P0.1525O0.6102,Li2.6667In1.0Hf0.6667Ti0.3333P3O12,8.386642,0.04069659788398982
Li0.1356In0.0593Hf0.0254Ti0.0169P0.1525O0.6102,Li2.6667In1.1667Hf0.5Ti0.3333P3O12,8.690509,0.03757076880006237
Li0.1356In0.0763Hf0.0085Ti0.0169P0.1525O0.6102,Li2.6667In1.5Hf0.1667Ti0.3333P3O12,8.690509,0.02653764969667378
Li0.1356In0.0847Hf0.0000Ti0.0169P0.1525O0.6102,Li2.6667In1.6667Hf0.0Ti0.3333P3O12,5.7995377,
Li0.1429In0.0000Hf0.0924Ti0.0084P0.1513O0.6050,Li2.8333In0.0Hf1.8333Ti0.1667P3O12,9.871589,
Li0.1429In0.0168Hf0.0756Ti0.0084P0.1513O0.6050,Li2.8333In0.3333Hf1.5Ti0.1667P3O12,11.688535,0.025541230768235095
Li0.1429In0.0252Hf0.0672Ti0.0084P0.1513O0.6050,Li2.8333In0.5Hf1.3333Ti0.1667P3O12,11.987548,0.027254496043471185
Li0.1429In0.0420Hf0.0504Ti0.0084P0.1513O0.6050,Li2.8333In0.8333Hf1.0Ti0.1667P3O12,12.118174,0.029516971298896005
Li0.1429In0.0504Hf0.0420Ti0.0084P0.1513O0.6050,Li2.8333In1.0Hf0.8333Ti0.1667P3O12,12.118174,0.04317894490834318
Li0.1429In0.0672Hf0.0252Ti0.0084P0.1513O0.6050,Li2.8333In1.3333Hf0.5Ti0.1667P3O12,12.422039,0.03867845348716862
Li0.1429In0.0756Hf0.0168Ti0.0084P0.1513O0.6050,Li2.8333In1.5Hf0.3333Ti0.1667P3O12,12.422039,0.03380583745779773
Li0.1429In0.0924Hf0.0000Ti0.0084P0.1513O0.6050,Li2.8333In1.8333Hf0.0Ti0.1667P3O12,9.531069,
Li0.1500In0.0000Hf0.1000Ti0.0000P0.1500O0.6000,Li3.0In0.0Hf2.0Ti0.0P3O12,13.217646,
Li0.1500In0.0083Hf0.0917Ti0.0000P0.1500O0.6000,Li3.0In0.1667Hf1.8333Ti0.0P3O12,13.217646,
Li0.1500In0.0167Hf0.0833Ti0.0000P0.1500O0.6000,Li3.0In0.3333Hf1.6667Ti0.0P3O12,15.034591,
Li0.1500In0.0250Hf0.0750Ti0.0000P0.1500O0.6000,Li3.0In0.5Hf1.5Ti0.0P3O12,15.333604,
Li0.1500In0.0333Hf0.0667Ti0.0000P0.1500O0.6000,Li3.0In0.6667Hf1.3333Ti0.0P3O12,15.333604,
Li0.1500In0.0417Hf0.0583Ti0.0000P0.1500O0.6000,Li3.0In0.8333Hf1.1667Ti0.0P3O12,15.46423,
Li0.1500In0.0500Hf0.0500Ti0.0000P0.1500O0.6000,Li3.0In1.0Hf1.0Ti0.0P3O12,15.46423,
Li0.1500In0.0583Hf0.0417Ti0.0000P0.1500O0.6000,Li3.0In1.1667Hf0.8333Ti0.0P3O12,15.46423,
Li0.1500In0.0667Hf0.0333Ti0.0000P0.1500O0.6000,Li3.0In1.3333Hf0.6667Ti0.0P3O12,15.46423,
Li0.1500In0.0750Hf0.0250Ti0.0000P0.1500O0.6000,Li3.0In1.5Hf0.5Ti0.0P3O12,15.768095,
Li0.1500In0.0833Hf0.0167Ti0.0000P0.1500O0.6000,Li3.0In1.6667Hf0.3333Ti0.0P3O12,12.877124,
Li0.1500In0.0917Hf0.0083Ti0.0000P0.1500O0.6000,Li3.0In1.8333Hf0.1667Ti0.0P3O12,12.877124,
Li0.1500In0.1000Hf0.0000Ti0.0000P0.1500O0.6000,Li3.0In2.0Hf0.0Ti0.0P3O12,12.877124,
Li0.0556In0.0000Bi0.0000Ti0.1111P0.1667O0.6667,Li1.0In0.0Bi0.0Ti2.0P3O12,7.7087817,
Li0.0642In0.0000Bi0.0092Ti0.1009P0.1651O0.6605,Li1.1667In0.0Bi0.1667Ti1.8333P3O12,7.7087817,
Li0.0642In0.0092Bi0.0000Ti0.1009P0.1651O0.6605,Li1.1667In0.1667Bi0.0Ti1.8333P3O12,7.7087817,
Li0.0727In0.0000Bi0.0182Ti0.0909P0.1636O0.6545,Li1.3333In0.0Bi0.3333Ti1.6667P3O12,7.7087817,
Li0.0727In0.0182Bi0.0000Ti0.0909P0.1636O0.6545,Li1.3333In0.3333Bi0.0Ti1.6667P3O12,8.017441,
Li0.0811In0.0000Bi0.0270Ti0.0811P0.1622O0.6486,Li1.5In0.0Bi0.5Ti1.5P3O12,7.750805,
Li0.0811In0.0090Bi0.0180Ti0.0811P0.1622O0.6486,Li1.5In0.1667Bi0.3333Ti1.5P3O12,7.750805,0.005331045178321096
Li0.0811In0.0180Bi0.0090Ti0.0811P0.1622O0.6486,Li1.5In0.3333Bi0.1667Ti1.5P3O12,8.036197,0.0036375353957335127
Li0.0811In0.0270Bi0.0000Ti0.0811P0.1622O0.6486,Li1.5In0.5Bi0.0Ti1.5P3O12,8.31198,
Li0.0893In0.0000Bi0.0357Ti0.0714P0.1607O0.6429,Li1.6667In0.0Bi0.6667Ti1.3333P3O12,8.129335,
Li0.0893In0.0089Bi0.0268Ti0.0714P0.1607O0.6429,Li1.6667In0.1667Bi0.5Ti1.3333P3O12,8.129335,0.00463569449462215
Li0.0893In0.0268Bi0.0089Ti0.0714P0.1607O0.6429,Li1.6667In0.5Bi0.1667Ti1.3333P3O12,8.690509,0.002398622852298823
Li0.0893In0.0357Bi0.0000Ti0.0714P0.1607O0.6429,Li1.6667In0.6667Bi0.0Ti1.3333P3O12,8.690509,
Li0.0973In0.0000Bi0.0442Ti0.0619P0.1593O0.6372,Li1.8333In0.0Bi0.8333Ti1.1667P3O12,8.129335,
Li0.0973In0.0177Bi0.0265Ti0.0619P0.1593O0.6372,Li1.8333In0.3333Bi0.5Ti1.1667P3O12,8.414724,0.001984060769671395
Li0.0973In0.0265Bi0.0177Ti0.0619P0.1593O0.6372,Li1.8333In0.5Bi0.3333Ti1.1667P3O12,8.690509,0.001485494967989719
Li0.0973In0.0442Bi0.0000Ti0.0619P0.1593O0.6372,Li1.8333In0.8333Bi0.0Ti1.1667P3O12,8.690509,
Li0.1053In0.0000Bi0.0526Ti0.0526P0.1579O0.6316,Li2.0In0.0Bi1.0Ti1.0P3O12,8.129335,
Li0.1053In0.0088Bi0.0439Ti0.0526P0.1579O0.6316,Li2.0In0.1667Bi0.8333Ti1.0P3O12,8.129335,0.0031103980501841705
Li0.1053In0.0175Bi0.0351Ti0.0526P0.1579O0.6316,Li2.0In0.3333Bi0.6667Ti1.0P3O12,8.403259,0.0015553077282776042
Li0.1053In0.0263Bi0.0263Ti0.0526P0.1579O0.6316,Li2.0In0.5Bi0.5Ti1.0P3O12,8.690509,0.0011016839870036223
Li0.1053In0.0351Bi0.0175Ti0.0526P0.1579O0.6316,Li2.0In0.6667Bi0.3333Ti1.0P3O12,8.690509,0.0009594793604994763
Li0.1053In0.0439Bi0.0088Ti0.0526P0.1579O0.6316,Li2.0In0.8333Bi0.1667Ti1.0P3O12,8.690509,0.0010906571605354834
Li0.1053In0.0526Bi0.0000Ti0.0526P0.1579O0.6316,Li2.0In1.0Bi0.0Ti1.0P3O12,8.690509,
Li0.1130In0.0000Bi0.0609Ti0.0435P0.1565O0.6261,Li2.1667In0.0Bi1.1667Ti0.8333P3O12,8.129335,
Li0.1130In0.0087Bi0.0522Ti0.0435P0.1565O0.6261,Li2.1667In0.1667Bi1.0Ti0.8333P3O12,8.129335,0.06200933929564457
Li0.1130In0.0261Bi0.0348Ti0.0435P0.1565O0.6261,Li2.1667In0.5Bi0.6667Ti0.8333P3O12,8.690509,4.122013786611192e-09
Li0.1130In0.0348Bi0.0261Ti0.0435P0.1565O0.6261,Li2.1667In0.6667Bi0.5Ti0.8333P3O12,8.690509,3.826635357494098e-09
Li0.1130In0.0522Bi0.0087Ti0.0435P0.1565O0.6261,Li2.1667In1.0Bi0.1667Ti0.8333P3O12,8.690509,0.011732879273952133
Li0.1130In0.0609Bi0.0000Ti0.0435P0.1565O0.6261,Li2.1667In1.1667Bi0.0Ti0.8333P3O12,8.690509,
Li0.1207In0.0000Bi0.0690Ti0.0345P0.1552O0.6207,Li2.3333In0.0Bi1.3333Ti0.6667P3O12,8.129335,
Li0.1207In0.0172Bi0.0517Ti0.0345P0.1552O0.6207,Li2.3333In0.3333Bi1.0Ti0.6667P3O12,8.403259,0.07652013208287821
Li0.1207In0.0259Bi0.0431Ti0.0345P0.1552O0.6207,Li2.3333In0.5Bi0.8333Ti0.6667P3O12,8.690509,2.916998864070305e-09
Li0.1207In0.0431Bi0.0259Ti0.0345P0.1552O0.6207,Li2.3333In0.8333Bi0.5Ti0.6667P3O12,8.690509,2.4861529313905516e-09
Li0.1207In0.0517Bi0.0172Ti0.0345P0.1552O0.6207,Li2.3333In1.0Bi0.3333Ti0.6667P3O12,8.690509,0.014813189375487961
Li0.1207In0.0690Bi0.0000Ti0.0345P0.1552O0.6207,Li2.3333In1.3333Bi0.0Ti0.6667P3O12,8.690509,
Li0.1282In0.0000Bi0.0769Ti0.0256P0.1538O0.6154,Li2.5In0.0Bi1.5Ti0.5P3O12,8.129335,
Li0.1282In0.0085Bi0.0684Ti0.0256P0.1538O0.6154,Li2.5In0.1667Bi1.3333Ti0.5P3O12,8.129335,0.06741363557518097
Li0.1282In0.0171Bi0.0598Ti0.0256P0.1538O0.6154,Li2.5In0.3333Bi1.1667Ti0.5P3O12,8.403259,0.0790036040977345
Li0.1282In0.0256Bi0.0513Ti0.0256P0.1538O0.6154,Li2.5In0.5Bi1.0Ti0.5P3O12,8.690509,0.08853051895339868
Li0.1282In0.0342Bi0.0427Ti0.0256P0.1538O0.6154,Li2.5In0.6667Bi0.8333Ti0.5P3O12,8.690509,1.831242504157266e-09
Li0.1282In0.0427Bi0.0342Ti0.0256P0.1538O0.6154,Li2.5In0.8333Bi0.6667Ti0.5P3O12,8.690509,1.6739941270316517e-09
Li0.1282In0.0513Bi0.0256Ti0.0256P0.1538O0.6154,Li2.5In1.0Bi0.5Ti0.5P3O12,8.690509,0.017582937727997797
Li0.1282In0.0598Bi0.0171Ti0.0256P0.1538O0.6154,Li2.5In1.1667Bi0.3333Ti0.5P3O12,8.690509,0.01539446419982745
Li0.1282In0.0684Bi0.0085Ti0.0256P0.1538O0.6154,Li2.5In1.3333Bi0.1667Ti0.5P3O12,8.690509,0.012603593425838645
Li0.1282In0.0769Bi0.0000Ti0.0256P0.1538O0.6154,Li2.5In1.5Bi0.0Ti0.5P3O12,5.7995377,
Li0.1356In0.0000Bi0.0847Ti0.0169P0.1525O0.6102,Li2.6667In0.0Bi1.6667Ti0.3333P3O12,8.129335,
Li0.1356In0.0085Bi0.0763Ti0.0169P0.1525O0.6102,Li2.6667In0.1667Bi1.5Ti0.3333P3O12,8.129335,0.073155878340116
Li0.1356In0.0254Bi0.0593Ti0.0169P0.1525O0.6102,Li2.6667In0.5Bi1.1667Ti0.3333P3O12,8.690509,0.09268135573773194
Li0.1356In0.0339Bi0.0508Ti0.0169P0.1525O0.6102,Li2.6667In0.6667Bi1.0Ti0.3333P3O12,8.690509,0.1001173306876204
Li0.1356In0.0508Bi0.0339Ti0.0169P0.1525O0.6102,Li2.6667In1.0Bi0.6667Ti0.3333P3O12,8.690509,0.02032417669788227
Li0.1356In0.0593Bi0.0254Ti0.0169P0.1525O0.6102,Li2.6667In1.1667Bi0.5Ti0.3333P3O12,8.690509,0.018389997915036385
Li0.1356In0.0763Bi0.0085Ti0.0169P0.1525O0.6102,Li2.6667In1.5Bi0.1667Ti0.3333P3O12,8.690509,0.013237069223002721
Li0.1356In0.0847Bi0.0000Ti0.0169P0.1525O0.6102,Li2.6667In1.6667Bi0.0Ti0.3333P3O12,5.7995377,
Li0.1429In0.0000Bi0.0924Ti0.0084P0.1513O0.6050,Li2.8333In0.0Bi1.8333Ti0.1667P3O12,11.860868,
Li0.1429In0.0168Bi0.0756Ti0.0084P0.1513O0.6050,Li2.8333In0.3333Bi1.5Ti0.1667P3O12,12.13479,0.09147969163660319
Li0.1429In0.0252Bi0.0672Ti0.0084P0.1513O0.6050,Li2.8333In0.5Bi1.3333Ti0.1667P3O12,12.422039,0.1006026662773076
Li0.1429In0.0420Bi0.0504Ti0.0084P0.1513O0.6050,Li2.8333In0.8333Bi1.0Ti0.1667P3O12,12.422039,0.11733504088531319
Li0.1429In0.0504Bi0.0420Ti0.0084P0.1513O0.6050,Li2.8333In1.0Bi0.8333Ti0.1667P3O12,12.422039,0.023869267303038212
Li0.1429In0.0672Bi0.0252Ti0.0084P0.1513O0.6050,Li2.8333In1.3333Bi0.5Ti0.1667P3O12,12.422039,0.019818139176589294
Li0.1429In0.0756Bi0.0168Ti0.0084P0.1513O0.6050,Li2.8333In1.5Bi0.3333Ti0.1667P3O12,12.422039,0.017296526954935804
Li0.1429In0.0924Bi0.0000Ti0.0084P0.1513O0.6050,Li2.8333In1.8333Bi0.0Ti0.1667P3O12,9.531069,
Li0.1500In0.0000Bi0.1000Ti0.0000P0.1500O0.6000,Li3.0In0.0Bi2.0Ti0.0P3O12,14.981435,
Li0.1500In0.0083Bi0.0917Ti0.0000P0.1500O0.6000,Li3.0In0.1667Bi1.8333Ti0.0P3O12,15.206924,
Li0.1500In0.0167Bi0.0833Ti0.0000P0.1500O0.6000,Li3.0In0.3333Bi1.6667Ti0.0P3O12,15.480846,
Li0.1500In0.0250Bi0.0750Ti0.0000P0.1500O0.6000,Li3.0In0.5Bi1.5Ti0.0P3O12,15.768095,
Li0.1500In0.0333Bi0.0667Ti0.0000P0.1500O0.6000,Li3.0In0.6667Bi1.3333Ti0.0P3O12,15.768095,
Li0.1500In0.0417Bi0.0583Ti0.0000P0.1500O0.6000,Li3.0In0.8333Bi1.1667Ti0.0P3O12,15.768095,
Li0.1500In0.0500Bi0.0500Ti0.0000P0.1500O0.6000,Li3.0In1.0Bi1.0Ti0.0P3O12,15.768095,
Li0.1500In0.0583Bi0.0417Ti0.0000P0.1500O0.6000,Li3.0In1.1667Bi0.8333Ti0.0P3O12,15.768095,
Li0.1500In0.0667Bi0.0333Ti0.0000P0.1500O0.6000,Li3.0In1.3333Bi0.6667Ti0.0P3O12,15.768095,
Li0.1500In0.0750Bi0.0250Ti0.0000P0.1500O0.6000,Li3.0In1.5Bi0.5Ti0.0P3O12,15.768095,
Li0.1500In0.0833Bi0.0167Ti0.0000P0.1500O0.6000,Li3.0In1.6667Bi0.3333Ti0.0P3O12,12.877124,
Li0.1500In0.0917Bi0.0083Ti0.0000P0.1500O0.6000,Li3.0In1.8333Bi0.1667Ti0.0P3O12,12.877124,
Li0.1500In0.1000Bi0.0000Ti0.0000P0.1500O0.6000,Li3.0In2.0Bi0.0Ti0.0P3O12,12.877124,
Li0.0556Mn0.0000Al0.0000Ti0.1111P0.1667O0.6667,Li1.0Mn0.0Al0.0Ti2.0P3O12,7.7087817,
Li0.0642Mn0.0000Al0.0092Ti0.1009P0.1651O0.6605,Li1.1667Mn0.0Al0.1667Ti1.8333P3O12,7.7087817,
Li0.0642Mn0.0092Al0.0000Ti0.1009P0.1651O0.6605,Li1.1667Mn0.1667Al0.0Ti1.8333P3O12,7.7087817,
Li0.0727Mn0.0000Al0.0182Ti0.0909P0.1636O0.6545,Li1.3333Mn0.0Al0.3333Ti1.6667P3O12,9.113234,
Li0.0727Mn0.0182Al0.0000Ti0.0909P0.1636O0.6545,Li1.3333Mn0.3333Al0.0Ti1.6667P3O12,7.7087817,
Li0.0811Mn0.0000Al0.0270Ti0.0811P0.1622O0.6486,Li1.5Mn0.0Al0.5Ti1.5P3O12,9.155256,
Li0.0811Mn0.0090Al0.0180Ti0.0811P0.1622O0.6486,Li1.5Mn0.1667Al0.3333Ti1.5P3O12,9.155256,0.32425303293915514
Li0.0811Mn0.0180Al0.0090Ti0.0811P0.1622O0.6486,Li1.5Mn0.3333Al0.1667Ti1.5P3O12,7.750805,0.55818082341251
Li0.0811Mn0.0270Al0.0000Ti0.0811P0.1622O0.6486,Li1.5Mn0.5Al0.0Ti1.5P3O12,7.750805,
Li0.0893Mn0.0000Al0.0357Ti0.0714P0.1607O0.6429,Li1.6667Mn0.0Al0.6667Ti1.3333P3O12,9.533785,
Li0.0893Mn0.0089Al0.0268Ti0.0714P0.1607O0.6429,Li1.6667Mn0.1667Al0.5Ti1.3333P3O12,9.533785,0.2938591188427359
Li0.0893Mn0.0268Al0.0089Ti0.0714P0.1607O0.6429,Li1.6667Mn0.5Al0.1667Ti1.3333P3O12,8.129335,0.6827596624292538
Li0.0893Mn0.0357Al0.0000Ti0.0714P0.1607O0.6429,Li1.6667Mn0.6667Al0.0Ti1.3333P3O12,8.129335,
Li0.0973Mn0.0000Al0.0442Ti0.0619P0.1593O0.6372,Li1.8333Mn0.0Al0.8333Ti1.1667P3O12,9.533785,
Li0.0973Mn0.0177Al0.0265Ti0.0619P0.1593O0.6372,Li1.8333Mn0.3333Al0.5Ti1.1667P3O12,9.533785,0.44407215998535376
Li0.0973Mn0.0265Al0.0177Ti0.0619P0.1593O0.6372,Li1.8333Mn0.5Al0.3333Ti1.1667P3O12,9.533785,0.5882830359285753
Li0.0973Mn0.0442Al0.0000Ti0.0619P0.1593O0.6372,Li1.8333Mn0.8333Al0.0Ti1.1667P3O12,7.1790795,
Li0.1053Mn0.0000Al0.0526Ti0.0526P0.1579O0.6316,Li2.0Mn0.0Al1.0Ti1.0P3O12,9.533785,
Li0.1053Mn0.0088Al0.0439Ti0.0526P0.1579O0.6316,Li2.0Mn0.1667Al0.8333Ti1.0P3O12,9.533785,0.2656489245153714
Li0.1053Mn0.0175Al0.0351Ti0.0526P0.1579O0.6316,Li2.0Mn0.3333Al0.6667Ti1.0P3O12,9.533785,0.4257425460275377
Li0.1053Mn0.0263Al0.0263Ti0.0526P0.1579O0.6316,Li2.0Mn0.5Al0.5Ti1.0P3O12,9.533785,0.559042554781798
Li0.1053Mn0.0351Al0.0175Ti0.0526P0.1579O0.6316,Li2.0Mn0.6667Al0.3333Ti1.0P3O12,8.129335,0.69063170383123
Li0.1053Mn0.0439Al0.0088Ti0.0526P0.1579O0.6316,Li2.0Mn0.8333Al0.1667Ti1.0P3O12,7.1790795,0.8918491341133288
Li0.1053Mn0.0526Al0.0000Ti0.0526P0.1579O0.6316,Li2.0Mn1.0Al0.0Ti1.0P3O12,7.5443654,
Li0.1130Mn0.0000Al0.0609Ti0.0435P0.1565O0.6261,Li2.1667Mn0.0Al1.1667Ti0.8333P3O12,9.286814,
Li0.1130Mn0.0087Al0.0522Ti0.0435P0.1565O0.6261,Li2.1667Mn0.1667Al1.0Ti0.8333P3O12,9.533785,0.18891495362310887
Li0.1130Mn0.0261Al0.0348Ti0.0435P0.1565O0.6261,Li2.1667Mn0.5Al0.6667Ti0.8333P3O12,9.533785,0.15282346242659997
Li0.1130Mn0.0348Al0.0261Ti0.0435P0.1565O0.6261,Li2.1667Mn0.6667Al0.5Ti0.8333P3O12,9.533785,0.17354308002554067
Li0.1130Mn0.0522Al0.0087Ti0.0435P0.1565O0.6261,Li2.1667Mn1.0Al0.1667Ti0.8333P3O12,7.5443654,0.26372274347086483
Li0.1130Mn0.0609Al0.0000Ti0.0435P0.1565O0.6261,Li2.1667Mn1.1667Al0.0Ti0.8333P3O12,7.5443654,
Li0.1207Mn0.0000Al0.0690Ti0.0345P0.1552O0.6207,Li2.3333Mn0.0Al1.3333Ti0.6667P3O12,9.286814,
Li0.1207Mn0.0172Al0.0517Ti0.0345P0.1552O0.6207,Li2.3333Mn0.3333Al1.0Ti0.6667P3O12,9.533785,0.32797070017330626
Li0.1207Mn0.0259Al0.0431Ti0.0345P0.1552O0.6207,Li2.3333Mn0.5Al0.8333Ti0.6667P3O12,9.533785,0.14463020707288735
Li0.1207Mn0.0431Al0.0259Ti0.0345P0.1552O0.6207,Li2.3333Mn0.8333Al0.5Ti0.6667P3O12,8.583533,0.18364786000341513
Li0.1207Mn0.0517Al0.0172Ti0.0345P0.1552O0.6207,Li2.3333Mn1.0Al0.3333Ti0.6667P3O12,7.5443654,0.6675317868919025
Li0.1207Mn0.0690Al0.0000Ti0.0345P0.1552O0.6207,Li2.3333Mn1.3333Al0.0Ti0.6667P3O12,7.5443654,
Li0.1282Mn0.0000Al0.0769Ti0.0256P0.1538O0.6154,Li2.5Mn0.0Al1.5Ti0.5P3O12,9.286814,
Li0.1282Mn0.0085Al0.0684Ti0.0256P0.1538O0.6154,Li2.5Mn0.1667Al1.3333Ti0.5P3O12,9.286814,0.23007861214124317
Li0.1282Mn0.0171Al0.0598Ti0.0256P0.1538O0.6154,Li2.5Mn0.3333Al1.1667Ti0.5P3O12,9.286814,0.3532460750003705
Li0.1282Mn0.0256Al0.0513Ti0.0256P0.1538O0.6154,Li2.5Mn0.5Al1.0Ti0.5P3O12,9.533785,0.42842123124652653
Li0.1282Mn0.0342Al0.0427Ti0.0256P0.1538O0.6154,Li2.5Mn0.6667Al0.8333Ti0.5P3O12,9.533785,0.153380375267563
Li0.1282Mn0.0427Al0.0342Ti0.0256P0.1538O0.6154,Li2.5Mn0.8333Al0.6667Ti0.5P3O12,8.583533,0.17091482749039535
Li0.1282Mn0.0513Al0.0256Ti0.0256P0.1538O0.6154,Li2.5Mn1.0Al0.5Ti0.5P3O12,8.948818,1.089667281733639
Li0.1282Mn0.0598Al0.0171Ti0.0256P0.1538O0.6154,Li2.5Mn1.1667Al0.3333Ti0.5P3O12,7.5443654,0.7416271391043736
Li0.1282Mn0.0684Al0.0085Ti0.0256P0.1538O0.6154,Li2.5Mn1.3333Al0.1667Ti0.5P3O12,7.5443654,0.3242594412436556
Li0.1282Mn0.0769Al0.0000Ti0.0256P0.1538O0.6154,Li2.5Mn1.5Al0.0Ti0.5P3O12,7.5443654,
Li0.1356Mn0.0000Al0.0847Ti0.0169P0.1525O0.6102,Li2.6667Mn0.0Al1.6667Ti0.3333P3O12,9.286814,
Li0.1356Mn0.0085Al0.0763Ti0.0169P0.1525O0.6102,Li2.6667Mn0.1667Al1.5Ti0.3333P3O12,9.286814,0.2701978388253918
Li0.1356Mn0.0254Al0.0593Ti0.0169P0.1525O0.6102,Li2.6667Mn0.5Al1.1667Ti0.3333P3O12,9.286814,0.47142934771288664
Li0.1356Mn0.0339Al0.0508Ti0.0169P0.1525O0.6102,Li2.6667Mn0.6667Al1.0Ti0.3333P3O12,9.533785,0.5229493240780388
Li0.1356Mn0.0508Al0.0339Ti0.0169P0.1525O0.6102,Li2.6667Mn1.0Al0.6667Ti0.3333P3O12,8.948818,1.6075345174716273
Li0.1356Mn0.0593Al0.0254Ti0.0169P0.1525O0.6102,Li2.6667Mn1.1667Al0.5Ti0.3333P3O12,8.948818,1.2983153565923786
Li0.1356Mn0.0763Al0.0085Ti0.0169P0.1525O0.6102,Li2.6667Mn1.5Al0.1667Ti0.3333P3O12,7.5443654,0.4007205511413586
Li0.1356Mn0.0847Al0.0000Ti0.0169P0.1525O0.6102,Li2.6667Mn1.6667Al0.0Ti0.3333P3O12,7.480082,
Li0.1429Mn0.0000Al0.0924Ti0.0084P0.1513O0.6050,Li2.8333Mn0.0Al1.8333Ti0.1667P3O12,13.018343,
Li0.1429Mn0.0168Al0.0756Ti0.0084P0.1513O0.6050,Li2.8333Mn0.3333Al1.5Ti0.1667P3O12,13.018343,0.48032795916438686
Li0.1429Mn0.0252Al0.0672Ti0.0084P0.1513O0.6050,Li2.8333Mn0.5Al1.3333Ti0.1667P3O12,13.018343,0.5624537077048382
Li0.1429Mn0.0420Al0.0504Ti0.0084P0.1513O0.6050,Li2.8333Mn0.8333Al1.0Ti0.1667P3O12,10.462015,0.6694963366777194
Li0.1429Mn0.0504Al0.0420Ti0.0084P0.1513O0.6050,Li2.8333Mn1.0Al0.8333Ti0.1667P3O12,10.827299,2.4093800888217567
Li0.1429Mn0.0672Al0.0252Ti0.0084P0.1513O0.6050,Li2.8333Mn1.3333Al0.5Ti0.1667P3O12,10.827299,1.7156083605972274
Li0.1429Mn0.0756Al0.0168Ti0.0084P0.1513O0.6050,Li2.8333Mn1.5Al0.3333Ti0.1667P3O12,9.4228525,1.2017554573475093
Li0.1429Mn0.0924Al0.0000Ti0.0084P0.1513O0.6050,Li2.8333Mn1.8333Al0.0Ti0.1667P3O12,9.358569,
Li0.1500Mn0.0000Al0.1000Ti0.0000P0.1500O0.6000,Li3.0Mn0.0Al2.0Ti0.0P3O12,15.867943,
Li0.1500Mn0.0083Al0.0917Ti0.0000P0.1500O0.6000,Li3.0Mn0.1667Al1.8333Ti0.0P3O12,15.070612,