formula,original_formula,thermal_expansion,li ion conductivity
Li0.0642Co0.0000Ni0.0092Ti0.1009P0.1651O0.6605,Li1.1667Co0.0Ni0.1667Ti1.8333P3O12,7.7087817,
Li0.0642Co0.0092Ni0.0000Ti0.1009P0.1651O0.6605,Li1.1667Co0.1667Ni0.0Ti1.8333P3O12,7.7087817,
Li0.0727Co0.0000Ni0.0182Ti0.0909P0.1636O0.6545,Li1.3333Co0.0Ni0.3333Ti1.6667P3O12,7.7087817,
Li0.0727Co0.0182Ni0.0000Ti0.0909P0.1636O0.6545,Li1.3333Co0.3333Ni0.0Ti1.6667P3O12,7.7087817,
Li0.0811Co0.0000Ni0.0270Ti0.0811P0.1622O0.6486,Li1.5Co0.0Ni0.5Ti1.5P3O12,12.950637,
Li0.0811Co0.0090Ni0.0180Ti0.0811P0.1622O0.6486,Li1.5Co0.1667Ni0.3333Ti1.5P3O12,7.750805,0.21085268660413253
Li0.0811Co0.0180Ni0.0090Ti0.0811P0.1622O0.6486,Li1.5Co0.3333Ni0.1667Ti1.5P3O12,7.750805,0.3583386333309887
Li0.0811Co0.0270Ni0.0000Ti0.0811P0.1622O0.6486,Li1.5Co0.5Ni0.0Ti1.5P3O12,7.750805,
Li0.0893Co0.0000Ni0.0357Ti0.0714P0.1607O0.6429,Li1.6667Co0.0Ni0.6667Ti1.3333P3O12,13.329165,
Li0.0893Co0.0089Ni0.0268Ti0.0714P0.1607O0.6429,Li1.6667Co0.1667Ni0.5Ti1.3333P3O12,13.329165,0.19100667123899032
Li0.0893Co0.0268Ni0.0089Ti0.0714P0.1607O0.6429,Li1.6667Co0.5Ni0.1667Ti1.3333P3O12,8.129335,0.44114083917062213
Li0.0893Co0.0357Ni0.0000Ti0.0714P0.1607O0.6429,Li1.6667Co0.6667Ni0.0Ti1.3333P3O12,8.129335,
Li0.0973Co0.0000Ni0.0442Ti0.0619P0.1593O0.6372,Li1.8333Co0.0Ni0.8333Ti1.1667P3O12,13.373692,
Li0.0973Co0.0177Ni0.0265Ti0.0619P0.1593O0.6372,Li1.8333Co0.3333Ni0.5Ti1.1667P3O12,13.329165,0.287425897408251
Li0.0973Co0.0265Ni0.0177Ti0.0619P0.1593O0.6372,Li1.8333Co0.5Ni0.3333Ti1.1667P3O12,8.129335,0.37751365842346274
Li0.0973Co0.0442Ni0.0000Ti0.0619P0.1593O0.6372,Li1.8333Co0.8333Ni0.0Ti1.1667P3O12,8.147218,
Li0.1053Co0.0000Ni0.0526Ti0.0526P0.1579O0.6316,Li2.0Co0.0Ni1.0Ti1.0P3O12,13.373692,
Li0.1053Co0.0088Ni0.0439Ti0.0526P0.1579O0.6316,Li2.0Co0.1667Ni0.8333Ti1.0P3O12,13.373692,0.17242695826431262
Li0.1053Co0.0175Ni0.0351Ti0.0526P0.1579O0.6316,Li2.0Co0.3333Ni0.6667Ti1.0P3O12,13.329165,0.2751271643180028
Li0.1053Co0.0263Ni0.0263Ti0.0526P0.1579O0.6316,Li2.0Co0.5Ni0.5Ti1.0P3O12,13.542915,0.35423881059641205
Li0.1053Co0.0351Ni0.0175Ti0.0526P0.1579O0.6316,Li2.0Co0.6667Ni0.3333Ti1.0P3O12,8.129335,0.4319407091871592
Li0.1053Co0.0439Ni0.0088Ti0.0526P0.1579O0.6316,Li2.0Co0.8333Ni0.1667Ti1.0P3O12,8.147218,0.547625806775788
Li0.1053Co0.0526Ni0.0000Ti0.0526P0.1579O0.6316,Li2.0Co1.0Ni0.0Ti1.0P3O12,8.147218,
Li0.1130Co0.0000Ni0.0609Ti0.0435P0.1565O0.6261,Li2.1667Co0.0Ni1.1667Ti0.8333P3O12,13.441338,
Li0.1130Co0.0087Ni0.0522Ti0.0435P0.1565O0.6261,Li2.1667Co0.1667Ni1.0Ti0.8333P3O12,13.373692,0.27914363077829607
Li0.1130Co0.0261Ni0.0348Ti0.0435P0.1565O0.6261,Li2.1667Co0.5Ni0.6667Ti0.8333P3O12,13.542915,0.047978480107975716
Li0.1130Co0.0348Ni0.0261Ti0.0435P0.1565O0.6261,Li2.1667Co0.6667Ni0.5Ti0.8333P3O12,13.542915,0.05653264547821783
Li0.1130Co0.0522Ni0.0087Ti0.0435P0.1565O0.6261,Li2.1667Co1.0Ni0.1667Ti0.8333P3O12,8.147218,0.263244540500155
Li0.1130Co0.0609Ni0.0000Ti0.0435P0.1565O0.6261,Li2.1667Co1.1667Ni0.0Ti0.8333P3O12,8.147218,
Li0.1207Co0.0000Ni0.0690Ti0.0345P0.1552O0.6207,Li2.3333Co0.0Ni1.3333Ti0.6667P3O12,13.441338,
Li0.1207Co0.0172Ni0.0517Ti0.0345P0.1552O0.6207,Li2.3333Co0.3333Ni1.0Ti0.6667P3O12,13.373692,0.47994075459549695
Li0.1207Co0.0259Ni0.0431Ti0.0345P0.1552O0.6207,Li2.3333Co0.5Ni0.8333Ti0.6667P3O12,13.587441,0.0444769691594547
Li0.1207Co0.0431Ni0.0259Ti0.0345P0.1552O0.6207,Li2.3333Co0.8333Ni0.5Ti0.6667P3O12,13.694184,0.058432310729253555
Li0.1207Co0.0517Ni0.0172Ti0.0345P0.1552O0.6207,Li2.3333Co1.0Ni0.3333Ti0.6667P3O12,8.147218,0.4916911053372913
Li0.1207Co0.0690Ni0.0000Ti0.0345P0.1552O0.6207,Li2.3333Co1.3333Ni0.0Ti0.6667P3O12,8.147218,
Li0.1282Co0.0000Ni0.0769Ti0.0256P0.1538O0.6154,Li2.5Co0.0Ni1.5Ti0.5P3O12,13.441338,
Li0.1282Co0.0085Ni0.0684Ti0.0256P0.1538O0.6154,Li2.5Co0.1667Ni1.3333Ti0.5P3O12,13.441338,0.32755001525924354
Li0.1282Co0.0171Ni0.0598Ti0.0256P0.1538O0.6154,Li2.5Co0.3333Ni1.1667Ti0.5P3O12,13.373692,0.5130793950396156
Li0.1282Co0.0256Ni0.0513Ti0.0256P0.1538O0.6154,Li2.5Co0.5Ni1.0Ti0.5P3O12,13.587441,0.6439030555804534
Li0.1282Co0.0342Ni0.0427Ti0.0256P0.1538O0.6154,Li2.5Co0.6667Ni0.8333Ti0.5P3O12,13.587441,0.04777268687979773
Li0.1282Co0.0427Ni0.0342Ti0.0256P0.1538O0.6154,Li2.5Co0.8333Ni0.6667Ti0.5P3O12,13.694184,0.05337809988183734
Li0.1282Co0.0513Ni0.0256Ti0.0256P0.1538O0.6154,Li2.5Co1.0Ni0.5Ti0.5P3O12,13.694184,0.6807812312647704
Li0.1282Co0.0598Ni0.0171Ti0.0256P0.1538O0.6154,Li2.5Co1.1667Ni0.3333Ti0.5P3O12,8.147218,0.5225667754139075
Li0.1282Co0.0684Ni0.0085Ti0.0256P0.1538O0.6154,Li2.5Co1.3333Ni0.1667Ti0.5P3O12,8.147218,0.3084864664939616
Li0.1282Co0.0769Ni0.0000Ti0.0256P0.1538O0.6154,Li2.5Co1.5Ni0.0Ti0.5P3O12,8.147218,
Li0.1356Co0.0000Ni0.0847Ti0.0169P0.1525O0.6102,Li2.6667Co0.0Ni1.6667Ti0.3333P3O12,13.38264,
Li0.1356Co0.0085Ni0.0763Ti0.0169P0.1525O0.6102,Li2.6667Co0.1667Ni1.5Ti0.3333P3O12,13.441338,0.3672216629839272
Li0.1356Co0.0254Ni0.0593Ti0.0169P0.1525O0.6102,Li2.6667Co0.5Ni1.1667Ti0.3333P3O12,13.587441,0.687729419706929
Li0.1356Co0.0339Ni0.0508Ti0.0169P0.1525O0.6102,Li2.6667Co0.6667Ni1.0Ti0.3333P3O12,13.587441,0.7869397735527225
Li0.1356Co0.0508Ni0.0339Ti0.0169P0.1525O0.6102,Li2.6667Co1.0Ni0.6667Ti0.3333P3O12,13.694184,0.8478452531179974
Li0.1356Co0.0593Ni0.0254Ti0.0169P0.1525O0.6102,Li2.6667Co1.1667Ni0.5Ti0.3333P3O12,13.694184,0.7222509404239119
Li0.1356Co0.0763Ni0.0085Ti0.0169P0.1525O0.6102,Li2.6667Co1.5Ni0.1667Ti0.3333P3O12,8.147218,0.34479441699880353
Li0.1356Co0.0847Ni0.0000Ti0.0169P0.1525O0.6102,Li2.6667Co1.6667Ni0.0Ti0.3333P3O12,8.147218,
Li0.1429Co0.0000Ni0.0924Ti0.0084P0.1513O0.6050,Li2.8333Co0.0Ni1.8333Ti0.1667P3O12,15.33442,
Li0.1429Co0.0168Ni0.0756Ti0.0084P0.1513O0.6050,Li2.8333Co0.3333Ni1.5Ti0.1667P3O12,15.393118,0.637172342087533
Li0.1429Co0.0252Ni0.0672Ti0.0084P0.1513O0.6050,Li2.8333Co0.5Ni1.3333Ti0.1667P3O12,15.606868,0.7828239821709981
Li0.1429Co0.0420Ni0.0504Ti0.0084P0.1513O0.6050,Li2.8333Co0.8333Ni1.0Ti0.1667P3O12,15.690491,0.9707028305053562
Li0.1429Co0.0504Ni0.0420Ti0.0084P0.1513O0.6050,Li2.8333Co1.0Ni0.8333Ti0.1667P3O12,15.690491,1.033538861673196
Li0.1429Co0.0672Ni0.0252Ti0.0084P0.1513O0.6050,Li2.8333Co1.3333Ni0.5Ti0.1667P3O12,15.645965,0.8051921366467064
Li0.1429Co0.0756Ni0.0168Ti0.0084P0.1513O0.6050,Li2.8333Co1.5Ni0.3333Ti0.1667P3O12,11.87875,0.6421944382167915
Li0.1429Co0.0924Ni0.0000Ti0.0084P0.1513O0.6050,Li2.8333Co1.8333Ni0.0Ti0.1667P3O12,11.87875,
Li0.1500Co0.0000Ni0.1000Ti0.0000P0.1500O0.6000,Li3.0Co0.0Ni2.0Ti0.0P3O12,18.680473,
Li0.1500Co0.0083Ni0.0917Ti0.0000P0.1500O0.6000,Li3.0Co0.1667Ni1.8333Ti0.0P3O12,18.680473,
Li0.1500Co0.0167Ni0.0833Ti0.0000P0.1500O0.6000,Li3.0Co0.3333Ni1.6667Ti0.0P3O12,18.680473,
Li0.1500Co0.0250Ni0.0750Ti0.0000P0.1500O0.6000,Li3.0Co0.5Ni1.5Ti0.0P3O12,18.95292,
Li0.1500Co0.0333Ni0.0667Ti0.0000P0.1500O0.6000,Li3.0Co0.6667Ni1.3333Ti0.0P3O12,18.95292,
Li0.1500Co0.0417Ni0.0583Ti0.0000P0.1500O0.6000,Li3.0Co0.8333Ni1.1667Ti0.0P3O12,19.036547,
Li0.1500Co0.0500Ni0.0500Ti0.0000P0.1500O0.6000,Li3.0Co1.0Ni1.0Ti0.0P3O12,19.036547,
Li0.1500Co0.0583Ni0.0417Ti0.0000P0.1500O0.6000,Li3.0Co1.1667Ni0.8333Ti0.0P3O12,19.036547,
Li0.1500Co0.0667Ni0.0333Ti0.0000P0.1500O0.6000,Li3.0Co1.3333Ni0.6667Ti0.0P3O12,18.992023,
Li0.1500Co0.0750Ni0.0250Ti0.0000P0.1500O0.6000,Li3.0Co1.5Ni0.5Ti0.0P3O12,18.992023,
Li0.1500Co0.0833Ni0.0167Ti0.0000P0.1500O0.6000,Li3.0Co1.6667Ni0.3333Ti0.0P3O12,15.224806,
Li0.1500Co0.0917Ni0.0083Ti0.0000P0.1500O0.6000,Li3.0Co1.8333Ni0.1667Ti0.0P3O12,15.224806,
Li0.1500Co0.1000Ni0.0000Ti0.0000P0.1500O0.6000,Li3.0Co2.0Ni0.0Ti0.0P3O12,15.21023,
Li0.0556Co0.0000Sb0.0000Ti0.1111P0.1667O0.6667,Li1.0Co0.0Sb0.0Ti2.0P3O12,7.7087817,
Li0.0642Co0.0000Sb0.0092Ti0.1009P0.1651O0.6605,Li1.1667Co0.0Sb0.1667Ti1.8333P3O12,7.7087817,
Li0.0642Co0.0092Sb0.0000Ti0.1009P0.1651O0.6605,Li1.1667Co0.1667Sb0.0Ti1.8333P3O12,7.7087817,
Li0.0727Co0.0000Sb0.0182Ti0.0909P0.1636O0.6545,Li1.3333Co0.0Sb0.3333Ti1.6667P3O12,8.6522875,
Li0.0727Co0.0182Sb0.0000Ti0.0909P0.1636O0.6545,Li1.3333Co0.3333Sb0.0Ti1.6667P3O12,7.7087817,
Li0.0811Co0.0000Sb0.0270Ti0.0811P0.1622O0.6486,Li1.5Co0.0Sb0.5Ti1.5P3O12,8.677033,
Li0.0811Co0.0090Sb0.0180Ti0.0811P0.1622O0.6486,Li1.5Co0.1667Sb0.3333Ti1.5P3O12,8.69431,0.009644476939402274
Li0.0811Co0.0180Sb0.0090Ti0.0811P0.1622O0.6486,Li1.5Co0.3333Sb0.1667Ti1.5P3O12,7.750805,0.020560224809045624
Li0.0811Co0.0270Sb0.0000Ti0.0811P0.1622O0.6486,Li1.5Co0.5Sb0.0Ti1.5P3O12,7.750805,
Li0.0893Co0.0000Sb0.0357Ti0.0714P0.1607O0.6429,Li1.6667Co0.0Sb0.6667Ti1.3333P3O12,9.055562,
Li0.0893Co0.0089Sb0.0268Ti0.0714P0.1607O0.6429,Li1.6667Co0.1667Sb0.5Ti1.3333P3O12,9.055562,0.007832525635821997
Li0.0893Co0.0268Sb0.0089Ti0.0714P0.1607O0.6429,Li1.6667Co0.5Sb0.1667Ti1.3333P3O12,8.129335,0.0252051206716058
Li0.0893Co0.0357Sb0.0000Ti0.0714P0.1607O0.6429,Li1.6667Co0.6667Sb0.0Ti1.3333P3O12,8.129335,
Li0.0973Co0.0000Sb0.0442Ti0.0619P0.1593O0.6372,Li1.8333Co0.0Sb0.8333Ti1.1667P3O12,9.055562,
Li0.0973Co0.0177Sb0.0265Ti0.0619P0.1593O0.6372,Li1.8333Co0.3333Sb0.5Ti1.1667P3O12,9.055562,0.01135801976241835
Li0.0973Co0.0265Sb0.0177Ti0.0619P0.1593O0.6372,Li1.8333Co0.5Sb0.3333Ti1.1667P3O12,9.072839,0.017176165813667814
Li0.0973Co0.0442Sb0.0000Ti0.0619P0.1593O0.6372,Li1.8333Co0.8333Sb0.0Ti1.1667P3O12,8.147218,
Li0.1053Co0.0000Sb0.0526Ti0.0526P0.1579O0.6316,Li2.0Co0.0Sb1.0Ti1.0P3O12,9.055562,
Li0.1053Co0.0088Sb0.0439Ti0.0526P0.1579O0.6316,Li2.0Co0.1667Sb0.8333Ti1.0P3O12,9.055562,0.006199783415055628
Li0.1053Co0.0175Sb0.0351Ti0.0526P0.1579O0.6316,Li2.0Co0.3333Sb0.6667Ti1.0P3O12,9.055562,0.009878996464361694
Li0.1053Co0.0263Sb0.0263Ti0.0526P0.1579O0.6316,Li2.0Co0.5Sb0.5Ti1.0P3O12,9.055562,0.014194547223724029
Li0.1053Co0.0351Sb0.0175Ti0.0526P0.1579O0.6316,Li2.0Co0.6667Sb0.3333Ti1.0P3O12,9.072839,0.019707778840325013
Li0.1053Co0.0439Sb0.0088Ti0.0526P0.1579O0.6316,Li2.0Co0.8333Sb0.1667Ti1.0P3O12,8.147218,0.03198534209369885
Li0.1053Co0.0526Sb0.0000Ti0.0526P0.1579O0.6316,Li2.0Co1.0Sb0.0Ti1.0P3O12,8.147218,
Li0.1130Co0.0000Sb0.0609Ti0.0435P0.1565O0.6261,Li2.1667Co0.0Sb1.1667Ti0.8333P3O12,9.055562,
Li0.1130Co0.0087Sb0.0522Ti0.0435P0.1565O0.6261,Li2.1667Co0.1667Sb1.0Ti0.8333P3O12,9.055562,0.029904242304628164
Li0.1130Co0.0261Sb0.0348Ti0.0435P0.1565O0.6261,Li2.1667Co0.5Sb0.6667Ti0.8333P3O12,9.055562,0.0015642335806568008
Li0.1130Co0.0348Sb0.0261Ti0.0435P0.1565O0.6261,Li2.1667Co0.6667Sb0.5Ti0.8333P3O12,9.055562,0.0018983179310620994
Li0.1130Co0.0522Sb0.0087Ti0.0435P0.1565O0.6261,Li2.1667Co1.0Sb0.1667Ti0.8333P3O12,8.147218,0.03591729105665834
Li0.1130Co0.0609Sb0.0000Ti0.0435P0.1565O0.6261,Li2.1667Co1.1667Sb0.0Ti0.8333P3O12,8.147218,
Li0.1207Co0.0000Sb0.0690Ti0.0345P0.1552O0.6207,Li2.3333Co0.0Sb1.3333Ti0.6667P3O12,9.055562,
Li0.1207Co0.0172Sb0.0517Ti0.0345P0.1552O0.6207,Li2.3333Co0.3333Sb1.0Ti0.6667P3O12,9.055562,0.05312615903329663
Li0.1207Co0.0259Sb0.0431Ti0.0345P0.1552O0.6207,Li2.3333Co0.5Sb0.8333Ti0.6667P3O12,9.055562,0.0014596426979366795
Li0.1207Co0.0431Sb0.0259Ti0.0345P0.1552O0.6207,Li2.3333Co0.8333Sb0.5Ti0.6667P3O12,9.073443,0.0020080187049488904
Li0.1207Co0.0517Sb0.0172Ti0.0345P0.1552O0.6207,Li2.3333Co1.0Sb0.3333Ti0.6667P3O12,9.09072,0.05757069256891264
Li0.1207Co0.0690Sb0.0000Ti0.0345P0.1552O0.6207,Li2.3333Co1.3333Sb0.0Ti0.6667P3O12,8.147218,
Li0.1282Co0.0000Sb0.0769Ti0.0256P0.1538O0.6154,Li2.5Co0.0Sb1.5Ti0.5P3O12,9.055562,
Li0.1282Co0.0085Sb0.0684Ti0.0256P0.1538O0.6154,Li2.5Co0.1667Sb1.3333Ti0.5P3O12,9.055562,0.0389070057359688
Li0.1282Co0.0171Sb0.0598Ti0.0256P0.1538O0.6154,Li2.5Co0.3333Sb1.1667Ti0.5P3O12,9.055562,0.05828288980628989
Li0.1282Co0.0256Sb0.0513Ti0.0256P0.1538O0.6154,Li2.5Co0.5Sb1.0Ti0.5P3O12,9.055562,0.07483511889760895
Li0.1282Co0.0342Sb0.0427Ti0.0256P0.1538O0.6154,Li2.5Co0.6667Sb0.8333Ti0.5P3O12,9.055562,0.001615206713293002
Li0.1282Co0.0427Sb0.0342Ti0.0256P0.1538O0.6154,Li2.5Co0.8333Sb0.6667Ti0.5P3O12,9.073443,0.0018346838962404954
Li0.1282Co0.0513Sb0.0256Ti0.0256P0.1538O0.6154,Li2.5Co1.0Sb0.5Ti0.5P3O12,9.073443,0.07651189897481163
Li0.1282Co0.0598Sb0.0171Ti0.0256P0.1538O0.6154,Li2.5Co1.1667Sb0.3333Ti0.5P3O12,9.09072,0.06132219375271989
Li0.1282Co0.0684Sb0.0085Ti0.0256P0.1538O0.6154,Li2.5Co1.3333Sb0.1667Ti0.5P3O12,8.147218,0.04105482639442281
Li0.1282Co0.0769Sb0.0000Ti0.0256P0.1538O0.6154,Li2.5Co1.5Sb0.0Ti0.5P3O12,8.147218,
Li0.1356Co0.0000Sb0.0847Ti0.0169P0.1525O0.6102,Li2.6667Co0.0Sb1.6667Ti0.3333P3O12,9.055562,
Li0.1356Co0.0085Sb0.0763Ti0.0169P0.1525O0.6102,Li2.6667Co0.1667Sb1.5Ti0.3333P3O12,9.055562,0.04563183169292422
Li0.1356Co0.0254Sb0.0593Ti0.0169P0.1525O0.6102,Li2.6667Co0.5Sb1.1667Ti0.3333P3O12,9.055562,0.08391075620939663
Li0.1356Co0.0339Sb0.0508Ti0.0169P0.1525O0.6102,Li2.6667Co0.6667Sb1.0Ti0.3333P3O12,9.055562,0.10056213659027773
Li0.1356Co0.0508Sb0.0339Ti0.0169P0.1525O0.6102,Li2.6667Co1.0Sb0.6667Ti0.3333P3O12,9.073443,0.09459313999485007
Li0.1356Co0.0593Sb0.0254Ti0.0169P0.1525O0.6102,Li2.6667Co1.1667Sb0.5Ti0.3333P3O12,9.073443,0.08151825659877732
Li0.1356Co0.0763Sb0.0085Ti0.0169P0.1525O0.6102,Li2.6667Co1.5Sb0.1667Ti0.3333P3O12,8.147218,0.045221003442527656
Li0.1356Co0.0847Sb0.0000Ti0.0169P0.1525O0.6102,Li2.6667Co1.6667Sb0.0Ti0.3333P3O12,8.147218,
Li0.1429Co0.0000Sb0.0924Ti0.0084P0.1513O0.6050,Li2.8333Co0.0Sb1.8333Ti0.1667P3O12,12.787092,
Li0.1429Co0.0168Sb0.0756Ti0.0084P0.1513O0.6050,Li2.8333Co0.3333Sb1.5Ti0.1667P3O12,12.787092,0.08053548213853011
Li0.1429Co0.0252Sb0.0672Ti0.0084P0.1513O0.6050,Li2.8333Co0.5Sb1.3333Ti0.1667P3O12,12.787092,0.10242371735027882
Li0.1429Co0.0420Sb0.0504Ti0.0084P0.1513O0.6050,Li2.8333Co0.8333Sb1.0Ti0.1667P3O12,12.804974,0.13922823031593143
Li0.1429Co0.0504Sb0.0420Ti0.0084P0.1513O0.6050,Li2.8333Co1.0Sb0.8333Ti0.1667P3O12,12.804974,0.11914917812831913
Li0.1429Co0.0672Sb0.0252Ti0.0084P0.1513O0.6050,Li2.8333Co1.3333Sb0.5Ti0.1667P3O12,12.804974,0.09161377798025815
Li0.1429Co0.0756Sb0.0168Ti0.0084P0.1513O0.6050,Li2.8333Co1.5Sb0.3333Ti0.1667P3O12,12.82225,0.07459508754888106
Li0.1429Co0.0924Sb0.0000Ti0.0084P0.1513O0.6050,Li2.8333Co1.8333Sb0.0Ti0.1667P3O12,11.87875,
Li0.1500Co0.0000Sb0.1000Ti0.0000P0.1500O0.6000,Li3.0Co0.0Sb2.0Ti0.0P3O12,16.133144,
Li0.1500Co0.0083Sb0.0917Ti0.0000P0.1500O0.6000,Li3.0Co0.1667Sb1.8333Ti0.0P3O12,16.133144,
Li0.1500Co0.0167Sb0.0833Ti0.0000P0.1500O0.6000,Li3.0Co0.3333Sb1.6667Ti0.0P3O12,16.133144,
Li0.1500Co0.0250Sb0.0750Ti0.0000P0.1500O0.6000,Li3.0Co0.5Sb1.5Ti0.0P3O12,16.133144,
Li0.1500Co0.0333Sb0.0667Ti0.0000P0.1500O0.6000,Li3.0Co0.6667Sb1.3333Ti0.0P3O12,16.133144,
Li0.1500Co0.0417Sb0.0583Ti0.0000P0.1500O0.6000,Li3.0Co0.8333Sb1.1667Ti0.0P3O12,16.15103,
Li0.1500Co0.0500Sb0.0500Ti0.0000P0.1500O0.6000,Li3.0Co1.0Sb1.0Ti0.0P3O12,16.15103,
Li0.1500Co0.0583Sb0.0417Ti0.0000P0.1500O0.6000,Li3.0Co1.1667Sb0.8333Ti0.0P3O12,16.15103,
Li0.1500Co0.0667Sb0.0333Ti0.0000P0.1500O0.6000,Li3.0Co1.3333Sb0.6667Ti0.0P3O12,16.15103,
Li0.1500Co0.0750Sb0.0250Ti0.0000P0.1500O0.6000,Li3.0Co1.5Sb0.5Ti0.0P3O12,16.15103,
Li0.1500Co0.0833Sb0.0167Ti0.0000P0.1500O0.6000,Li3.0Co1.6667Sb0.3333Ti0.0P3O12,16.168306,
Li0.1500Co0.0917Sb0.0083Ti0.0000P0.1500O0.6000,Li3.0Co1.8333Sb0.1667Ti0.0P3O12,15.224806,
Li0.1500Co0.1000Sb0.0000Ti0.0000P0.1500O0.6000,Li3.0Co2.0Sb0.0Ti0.0P3O12,15.21023,
Li0.0556Co0.0000Sc0.0000Ti0.1111P0.1667O0.6667,Li1.0Co0.0Sc0.0Ti2.0P3O12,7.7087817,
Li0.0642Co0.0000Sc0.0092Ti0.1009P0.1651O0.6605,Li1.1667Co0.0Sc0.1667Ti1.8333P3O12,8.985445,
Li0.0642Co0.0092Sc0.0000Ti0.1009P0.1651O0.6605,Li1.1667Co0.1667Sc0.0Ti1.8333P3O12,7.7087817,
Li0.0727Co0.0000Sc0.0182Ti0.0909P0.1636O0.6545,Li1.3333Co0.0Sc0.3333Ti1.6667P3O12,11.915219,
Li0.0727Co0.0182Sc0.0000Ti0.0909P0.1636O0.6545,Li1.3333Co0.3333Sc0.0Ti1.6667P3O12,7.7087817,
Li0.0811Co0.0000Sc0.0270Ti0.0811P0.1622O0.6486,Li1.5Co0.0Sc0.5Ti1.5P3O12,6.105611,
Li0.0811Co0.0090Sc0.0180Ti0.0811P0.1622O0.6486,Li1.5Co0.1667Sc0.3333Ti1.5P3O12,11.957242,1.1106721215852973
Li0.0811Co0.0180Sc0.0090Ti0.0811P0.1622O0.6486,Li1.5Co0.3333Sc0.1667Ti1.5P3O12,9.027468,2.048435756206911
Li0.0811Co0.0270Sc0.0000Ti0.0811P0.1622O0.6486,Li1.5Co0.5Sc0.0Ti1.5P3O12,7.750805,
Li0.0893Co0.0000Sc0.0357Ti0.0714P0.1607O0.6429,Li1.6667Co0.0Sc0.6667Ti1.3333P3O12,6.484139,
Li0.0893Co0.0089Sc0.0268Ti0.0714P0.1607O0.6429,Li1.6667Co0.1667Sc0.5Ti1.3333P3O12,6.484139,1.0178342904509254
Li0.0893Co0.0268Sc0.0089Ti0.0714P0.1607O0.6429,Li1.6667Co0.5Sc0.1667Ti1.3333P3O12,9.405996,2.656982212614776
Li0.0893Co0.0357Sc0.0000Ti0.0714P0.1607O0.6429,Li1.6667Co0.6667Sc0.0Ti1.3333P3O12,8.129335,
Li0.0973Co0.0000Sc0.0442Ti0.0619P0.1593O0.6372,Li1.8333Co0.0Sc0.8333Ti1.1667P3O12,6.484139,
Li0.0973Co0.0177Sc0.0265Ti0.0619P0.1593O0.6372,Li1.8333Co0.3333Sc0.5Ti1.1667P3O12,6.484139,1.5924006823169792
Li0.0973Co0.0265Sc0.0177Ti0.0619P0.1593O0.6372,Li1.8333Co0.5Sc0.3333Ti1.1667P3O12,12.335771,2.236871751346544
Li0.0973Co0.0442Sc0.0000Ti0.0619P0.1593O0.6372,Li1.8333Co0.8333Sc0.0Ti1.1667P3O12,8.147218,
Li0.1053Co0.0000Sc0.0526Ti0.0526P0.1579O0.6316,Li2.0Co0.0Sc1.0Ti1.0P3O12,6.484139,
Li0.1053Co0.0088Sc0.0439Ti0.0526P0.1579O0.6316,Li2.0Co0.1667Sc0.8333Ti1.0P3O12,6.484139,0.9186700564205782
Li0.1053Co0.0175Sc0.0351Ti0.0526P0.1579O0.6316,Li2.0Co0.3333Sc0.6667Ti1.0P3O12,6.484139,1.4958609778675087
Li0.1053Co0.0263Sc0.0263Ti0.0526P0.1579O0.6316,Li2.0Co0.5Sc0.5Ti1.0P3O12,6.484139,2.0346459392983594
Li0.1053Co0.0351Sc0.0175Ti0.0526P0.1579O0.6316,Li2.0Co0.6667Sc0.3333Ti1.0P3O12,12.335771,2.6990103937163408
Li0.1053Co0.0439Sc0.0088Ti0.0526P0.1579O0.6316,Li2.0Co0.8333Sc0.1667Ti1.0P3O12,9.423878,3.707875770357849
Li0.1053Co0.0526Sc0.0000Ti0.0526P0.1579O0.6316,Li2.0Co1.0Sc0.0Ti1.0P3O12,8.147218,
Li0.1130Co0.0000Sc0.0609Ti0.0435P0.1565O0.6261,Li2.1667Co0.0Sc1.1667Ti0.8333P3O12,6.484139,
Li0.1130Co0.0087Sc0.0522Ti0.0435P0.1565O0.6261,Li2.1667Co0.1667Sc1.0Ti0.8333P3O12,6.484139,0.2353415546248375
Li0.1130Co0.0261Sc0.0348Ti0.0435P0.1565O0.6261,Li2.1667Co0.5Sc0.6667Ti0.8333P3O12,6.484139,0.9919603039487735
Li0.1130Co0.0348Sc0.0261Ti0.0435P0.1565O0.6261,Li2.1667Co0.6667Sc0.5Ti0.8333P3O12,6.484139,1.2524955023157633
Li0.1130Co0.0522Sc0.0087Ti0.0435P0.1565O0.6261,Li2.1667Co1.0Sc0.1667Ti0.8333P3O12,9.423878,0.22318107750560826
Li0.1130Co0.0609Sc0.0000Ti0.0435P0.1565O0.6261,Li2.1667Co1.1667Sc0.0Ti0.8333P3O12,8.147218,
Li0.1207Co0.0000Sc0.0690Ti0.0345P0.1552O0.6207,Li2.3333Co0.0Sc1.3333Ti0.6667P3O12,6.484139,
Li0.1207Co0.0172Sc0.0517Ti0.0345P0.1552O0.6207,Li2.3333Co0.3333Sc1.0Ti0.6667P3O12,6.484139,0.3963431320385899
Li0.1207Co0.0259Sc0.0431Ti0.0345P0.1552O0.6207,Li2.3333Co0.5Sc0.8333Ti0.6667P3O12,6.484139,0.902702634641487
Li0.1207Co0.0431Sc0.0259Ti0.0345P0.1552O0.6207,Li2.3333Co0.8333Sc0.5Ti0.6667P3O12,6.528375,1.346705702175069
Li0.1207Co0.0517Sc0.0172Ti0.0345P0.1552O0.6207,Li2.3333Co1.0Sc0.3333Ti0.6667P3O12,12.353652,0.33257524906780633
Li0.1207Co0.0690Sc0.0000Ti0.0345P0.1552O0.6207,Li2.3333Co1.3333Sc0.0Ti0.6667P3O12,8.147218,
Li0.1282Co0.0000Sc0.0769Ti0.0256P0.1538O0.6154,Li2.5Co0.0Sc1.5Ti0.5P3O12,6.484139,
Li0.1282Co0.0085Sc0.0684Ti0.0256P0.1538O0.6154,Li2.5Co0.1667Sc1.3333Ti0.5P3O12,6.484139,0.26788990177526
Li0.1282Co0.0171Sc0.0598Ti0.0256P0.1538O0.6154,Li2.5Co0.3333Sc1.1667Ti0.5P3O12,6.484139,0.42012729608915717
Li0.1282Co0.0256Sc0.0513Ti0.0256P0.1538O0.6154,Li2.5Co0.5Sc1.0Ti0.5P3O12,6.484139,0.5218225707404645
Li0.1282Co0.0342Sc0.0427Ti0.0256P0.1538O0.6154,Li2.5Co0.6667Sc0.8333Ti0.5P3O12,6.484139,1.0076367651370288
Li0.1282Co0.0427Sc0.0342Ti0.0256P0.1538O0.6154,Li2.5Co0.8333Sc0.6667Ti0.5P3O12,6.528375,1.18165304108361
Li0.1282Co0.0513Sc0.0256Ti0.0256P0.1538O0.6154,Li2.5Co1.0Sc0.5Ti0.5P3O12,6.528375,0.4436179739232526
Li0.1282Co0.0598Sc0.0171Ti0.0256P0.1538O0.6154,Li2.5Co1.1667Sc0.3333Ti0.5P3O12,12.353652,0.3659256711070267
Li0.1282Co0.0684Sc0.0085Ti0.0256P0.1538O0.6154,Li2.5Co1.3333Sc0.1667Ti0.5P3O12,9.423878,0.2519560255466156
Li0.1282Co0.0769Sc0.0000Ti0.0256P0.1538O0.6154,Li2.5Co1.5Sc0.0Ti0.5P3O12,8.147218,
Li0.1356Co0.0000Sc0.0847Ti0.0169P0.1525O0.6102,Li2.6667Co0.0Sc1.6667Ti0.3333P3O12,6.484139,
Li0.1356Co0.0085Sc0.0763Ti0.0169P0.1525O0.6102,Li2.6667Co0.1667Sc1.5Ti0.3333P3O12,6.484139,0.29906425841796075
Li0.1356Co0.0254Sc0.0593Ti0.0169P0.1525O0.6102,Li2.6667Co0.5Sc1.1667Ti0.3333P3O12,6.484139,0.5563807005554184
Li0.1356Co0.0339Sc0.0508Ti0.0169P0.1525O0.6102,Li2.6667Co0.6667Sc1.0Ti0.3333P3O12,6.484139,0.632897221397642