formula,original_formula,thermal_expansion,li ion conductivity
Li0.1207Cr0.0259In0.0431Ti0.0345P0.1552O0.6207,Li2.3333Cr0.5In0.8333Ti0.6667P3O12,8.690509,0.25105704108553323
Li0.1207Cr0.0431In0.0259Ti0.0345P0.1552O0.6207,Li2.3333Cr0.8333In0.5Ti0.6667P3O12,7.0917535,0.4470816138976158
Li0.1207Cr0.0517In0.0172Ti0.0345P0.1552O0.6207,Li2.3333Cr1.0In0.3333Ti0.6667P3O12,6.873962,0.05891999726348964
Li0.1207Cr0.0690In0.0000Ti0.0345P0.1552O0.6207,Li2.3333Cr1.3333In0.0Ti0.6667P3O12,13.286617,
Li0.1282Cr0.0000In0.0769Ti0.0256P0.1538O0.6154,Li2.5Cr0.0In1.5Ti0.5P3O12,5.7995377,
Li0.1282Cr0.0085In0.0684Ti0.0256P0.1538O0.6154,Li2.5Cr0.1667In1.3333Ti0.5P3O12,8.690509,0.0075478267330767405
Li0.1282Cr0.0171In0.0598Ti0.0256P0.1538O0.6154,Li2.5Cr0.3333In1.1667Ti0.5P3O12,8.690509,0.01489257575741736
Li0.1282Cr0.0256In0.0513Ti0.0256P0.1538O0.6154,Li2.5Cr0.5In1.0Ti0.5P3O12,8.690509,0.02226791808307491
Li0.1282Cr0.0342In0.0427Ti0.0256P0.1538O0.6154,Li2.5Cr0.6667In0.8333Ti0.5P3O12,8.690509,0.30686259969533736
Li0.1282Cr0.0427In0.0342Ti0.0256P0.1538O0.6154,Li2.5Cr0.8333In0.6667Ti0.5P3O12,7.0917535,0.3938693379072037
Li0.1282Cr0.0513In0.0256Ti0.0256P0.1538O0.6154,Li2.5Cr1.0In0.5Ti0.5P3O12,7.0917535,0.05884106165552072
Li0.1282Cr0.0598In0.0171Ti0.0256P0.1538O0.6154,Li2.5Cr1.1667In0.3333Ti0.5P3O12,6.873962,0.059365001484634035
Li0.1282Cr0.0684In0.0085Ti0.0256P0.1538O0.6154,Li2.5Cr1.3333In0.1667Ti0.5P3O12,13.286617,0.05429755976346784
Li0.1282Cr0.0769In0.0000Ti0.0256P0.1538O0.6154,Li2.5Cr1.5In0.0Ti0.5P3O12,13.286617,
Li0.1356Cr0.0000In0.0847Ti0.0169P0.1525O0.6102,Li2.6667Cr0.0In1.6667Ti0.3333P3O12,5.7995377,
Li0.1356Cr0.0085In0.0763Ti0.0169P0.1525O0.6102,Li2.6667Cr0.1667In1.5Ti0.3333P3O12,8.690509,0.00914569948574126
Li0.1356Cr0.0254In0.0593Ti0.0169P0.1525O0.6102,Li2.6667Cr0.5In1.1667Ti0.3333P3O12,8.690509,0.024840410471759278
Li0.1356Cr0.0339In0.0508Ti0.0169P0.1525O0.6102,Li2.6667Cr0.6667In1.0Ti0.3333P3O12,8.690509,0.031262535939139045
Li0.1356Cr0.0508In0.0339Ti0.0169P0.1525O0.6102,Li2.6667Cr1.0In0.6667Ti0.3333P3O12,7.0917535,0.05835024837323522
Li0.1356Cr0.0593In0.0254Ti0.0169P0.1525O0.6102,Li2.6667Cr1.1667In0.5Ti0.3333P3O12,7.0917535,0.06012361774881891
Li0.1356Cr0.0763In0.0085Ti0.0169P0.1525O0.6102,Li2.6667Cr1.5In0.1667Ti0.3333P3O12,13.286617,0.05658406318073828
Li0.1356Cr0.0847In0.0000Ti0.0169P0.1525O0.6102,Li2.6667Cr1.6667In0.0Ti0.3333P3O12,13.699678,
Li0.1429Cr0.0000In0.0924Ti0.0084P0.1513O0.6050,Li2.8333Cr0.0In1.8333Ti0.1667P3O12,9.531069,
Li0.1429Cr0.0168In0.0756Ti0.0084P0.1513O0.6050,Li2.8333Cr0.3333In1.5Ti0.1667P3O12,12.422039,0.021880122240643677
Li0.1429Cr0.0252In0.0672Ti0.0084P0.1513O0.6050,Li2.8333Cr0.5In1.3333Ti0.1667P3O12,12.422039,0.030966384572224673
Li0.1429Cr0.0420In0.0504Ti0.0084P0.1513O0.6050,Li2.8333Cr0.8333In1.0Ti0.1667P3O12,10.823288,0.04474597493261681
Li0.1429Cr0.0504In0.0420Ti0.0084P0.1513O0.6050,Li2.8333Cr1.0In0.8333Ti0.1667P3O12,10.823288,0.06492226529434421
Li0.1429Cr0.0672In0.0252Ti0.0084P0.1513O0.6050,Li2.8333Cr1.3333In0.5Ti0.1667P3O12,16.26474,0.0667957749798518
Li0.1429Cr0.0756In0.0168Ti0.0084P0.1513O0.6050,Li2.8333Cr1.5In0.3333Ti0.1667P3O12,16.04695,0.06760041763207514
Li0.1429Cr0.0924In0.0000Ti0.0084P0.1513O0.6050,Li2.8333Cr1.8333In0.0Ti0.1667P3O12,17.431204,
Li0.1500Cr0.0000In0.1000Ti0.0000P0.1500O0.6000,Li3.0Cr0.0In2.0Ti0.0P3O12,12.877124,
Li0.1500Cr0.0083In0.0917Ti0.0000P0.1500O0.6000,Li3.0Cr0.1667In1.8333Ti0.0P3O12,12.877124,
Li0.1500Cr0.0167In0.0833Ti0.0000P0.1500O0.6000,Li3.0Cr0.3333In1.6667Ti0.0P3O12,12.877124,
Li0.1500Cr0.0250In0.0750Ti0.0000P0.1500O0.6000,Li3.0Cr0.5In1.5Ti0.0P3O12,15.768095,
Li0.1500Cr0.0333In0.0667Ti0.0000P0.1500O0.6000,Li3.0Cr0.6667In1.3333Ti0.0P3O12,15.768095,
Li0.1500Cr0.0417In0.0583Ti0.0000P0.1500O0.6000,Li3.0Cr0.8333In1.1667Ti0.0P3O12,14.169344,
Li0.1500Cr0.0500In0.0500Ti0.0000P0.1500O0.6000,Li3.0Cr1.0In1.0Ti0.0P3O12,14.169344,
Li0.1500Cr0.0583In0.0417Ti0.0000P0.1500O0.6000,Li3.0Cr1.1667In0.8333Ti0.0P3O12,14.169344,
Li0.1500Cr0.0667In0.0333Ti0.0000P0.1500O0.6000,Li3.0Cr1.3333In0.6667Ti0.0P3O12,16.736862,
Li0.1500Cr0.0750In0.0250Ti0.0000P0.1500O0.6000,Li3.0Cr1.5In0.5Ti0.0P3O12,16.736862,
Li0.1500Cr0.0833In0.0167Ti0.0000P0.1500O0.6000,Li3.0Cr1.6667In0.3333Ti0.0P3O12,16.93213,
Li0.1500Cr0.0917In0.0083Ti0.0000P0.1500O0.6000,Li3.0Cr1.8333In0.1667Ti0.0P3O12,17.903326,
Li0.1500Cr0.1000In0.0000Ti0.0000P0.1500O0.6000,Li3.0Cr2.0In0.0Ti0.0P3O12,17.903326,
Li0.0556Cr0.0000Mn0.0000Ti0.1111P0.1667O0.6667,Li1.0Cr0.0Mn0.0Ti2.0P3O12,7.7087817,
Li0.0642Cr0.0000Mn0.0092Ti0.1009P0.1651O0.6605,Li1.1667Cr0.0Mn0.1667Ti1.8333P3O12,7.7087817,
Li0.0642Cr0.0092Mn0.0000Ti0.1009P0.1651O0.6605,Li1.1667Cr0.1667Mn0.0Ti1.8333P3O12,7.7087817,
Li0.0727Cr0.0000Mn0.0182Ti0.0909P0.1636O0.6545,Li1.3333Cr0.0Mn0.3333Ti1.6667P3O12,7.7087817,
Li0.0727Cr0.0182Mn0.0000Ti0.0909P0.1636O0.6545,Li1.3333Cr0.3333Mn0.0Ti1.6667P3O12,7.7087817,
Li0.0811Cr0.0000Mn0.0270Ti0.0811P0.1622O0.6486,Li1.5Cr0.0Mn0.5Ti1.5P3O12,7.750805,
Li0.0811Cr0.0090Mn0.0180Ti0.0811P0.1622O0.6486,Li1.5Cr0.1667Mn0.3333Ti1.5P3O12,7.750805,0.14405286195439215
Li0.0811Cr0.0180Mn0.0090Ti0.0811P0.1622O0.6486,Li1.5Cr0.3333Mn0.1667Ti1.5P3O12,7.750805,0.27232749799357975
Li0.0811Cr0.0270Mn0.0000Ti0.0811P0.1622O0.6486,Li1.5Cr0.5Mn0.0Ti1.5P3O12,7.750805,
Li0.0893Cr0.0000Mn0.0357Ti0.0714P0.1607O0.6429,Li1.6667Cr0.0Mn0.6667Ti1.3333P3O12,8.129335,
Li0.0893Cr0.0089Mn0.0268Ti0.0714P0.1607O0.6429,Li1.6667Cr0.1667Mn0.5Ti1.3333P3O12,8.129335,0.13336590703748843
Li0.0893Cr0.0268Mn0.0089Ti0.0714P0.1607O0.6429,Li1.6667Cr0.5Mn0.1667Ti1.3333P3O12,8.129335,0.3695035438496173
Li0.0893Cr0.0357Mn0.0000Ti0.0714P0.1607O0.6429,Li1.6667Cr0.6667Mn0.0Ti1.3333P3O12,8.129335,
Li0.0973Cr0.0000Mn0.0442Ti0.0619P0.1593O0.6372,Li1.8333Cr0.0Mn0.8333Ti1.1667P3O12,7.1790795,
Li0.0973Cr0.0177Mn0.0265Ti0.0619P0.1593O0.6372,Li1.8333Cr0.3333Mn0.5Ti1.1667P3O12,8.129335,0.2543578228336642
Li0.0973Cr0.0265Mn0.0177Ti0.0619P0.1593O0.6372,Li1.8333Cr0.5Mn0.3333Ti1.1667P3O12,8.129335,0.35991961118759963
Li0.0973Cr0.0442Mn0.0000Ti0.0619P0.1593O0.6372,Li1.8333Cr0.8333Mn0.0Ti1.1667P3O12,7.845156,
Li0.1053Cr0.0000Mn0.0526Ti0.0526P0.1579O0.6316,Li2.0Cr0.0Mn1.0Ti1.0P3O12,7.5443654,
Li0.1053Cr0.0088Mn0.0439Ti0.0526P0.1579O0.6316,Li2.0Cr0.1667Mn0.8333Ti1.0P3O12,7.1790795,0.12014183779175625
Li0.1053Cr0.0175Mn0.0351Ti0.0526P0.1579O0.6316,Li2.0Cr0.3333Mn0.6667Ti1.0P3O12,8.129335,0.24789052656596
Li0.1053Cr0.0263Mn0.0263Ti0.0526P0.1579O0.6316,Li2.0Cr0.5Mn0.5Ti1.0P3O12,8.129335,0.3536671420980322
Li0.1053Cr0.0351Mn0.0175Ti0.0526P0.1579O0.6316,Li2.0Cr0.6667Mn0.3333Ti1.0P3O12,8.129335,0.4382221315799655
Li0.1053Cr0.0439Mn0.0088Ti0.0526P0.1579O0.6316,Li2.0Cr0.8333Mn0.1667Ti1.0P3O12,7.845156,0.5186723574929522
Li0.1053Cr0.0526Mn0.0000Ti0.0526P0.1579O0.6316,Li2.0Cr1.0Mn0.0Ti1.0P3O12,7.845156,
Li0.1130Cr0.0000Mn0.0609Ti0.0435P0.1565O0.6261,Li2.1667Cr0.0Mn1.1667Ti0.8333P3O12,7.5443654,
Li0.1130Cr0.0087Mn0.0522Ti0.0435P0.1565O0.6261,Li2.1667Cr0.1667Mn1.0Ti0.8333P3O12,7.5443654,0.10386055619427184
Li0.1130Cr0.0261Mn0.0348Ti0.0435P0.1565O0.6261,Li2.1667Cr0.5Mn0.6667Ti0.8333P3O12,8.129335,0.057501582094240916
Li0.1130Cr0.0348Mn0.0261Ti0.0435P0.1565O0.6261,Li2.1667Cr0.6667Mn0.5Ti0.8333P3O12,8.129335,0.06925836279398276
Li0.1130Cr0.0522Mn0.0087Ti0.0435P0.1565O0.6261,Li2.1667Cr1.0Mn0.1667Ti0.8333P3O12,7.845156,0.11260032914114501
Li0.1130Cr0.0609Mn0.0000Ti0.0435P0.1565O0.6261,Li2.1667Cr1.1667Mn0.0Ti0.8333P3O12,13.286617,
Li0.1207Cr0.0000Mn0.0690Ti0.0345P0.1552O0.6207,Li2.3333Cr0.0Mn1.3333Ti0.6667P3O12,7.5443654,
Li0.1207Cr0.0172Mn0.0517Ti0.0345P0.1552O0.6207,Li2.3333Cr0.3333Mn1.0Ti0.6667P3O12,7.5443654,0.21297393932346875
Li0.1207Cr0.0259Mn0.0431Ti0.0345P0.1552O0.6207,Li2.3333Cr0.5Mn0.8333Ti0.6667P3O12,7.1790795,0.05508599305227321
Li0.1207Cr0.0431Mn0.0259Ti0.0345P0.1552O0.6207,Li2.3333Cr0.8333Mn0.5Ti0.6667P3O12,7.845156,0.07551888566281315
Li0.1207Cr0.0517Mn0.0172Ti0.0345P0.1552O0.6207,Li2.3333Cr1.0Mn0.3333Ti0.6667P3O12,7.845156,0.2029348318577988
Li0.1207Cr0.0690Mn0.0000Ti0.0345P0.1552O0.6207,Li2.3333Cr1.3333Mn0.0Ti0.6667P3O12,13.286617,
Li0.1282Cr0.0000Mn0.0769Ti0.0256P0.1538O0.6154,Li2.5Cr0.0Mn1.5Ti0.5P3O12,7.5443654,
Li0.1282Cr0.0085Mn0.0684Ti0.0256P0.1538O0.6154,Li2.5Cr0.1667Mn1.3333Ti0.5P3O12,7.5443654,0.1287137261688082
Li0.1282Cr0.0171Mn0.0598Ti0.0256P0.1538O0.6154,Li2.5Cr0.3333Mn1.1667Ti0.5P3O12,7.5443654,0.23125615684609357
Li0.1282Cr0.0256Mn0.0513Ti0.0256P0.1538O0.6154,Li2.5Cr0.5Mn1.0Ti0.5P3O12,7.5443654,0.3200626207317617
Li0.1282Cr0.0342Mn0.0427Ti0.0256P0.1538O0.6154,Li2.5Cr0.6667Mn0.8333Ti0.5P3O12,7.1790795,0.0617020248030179
Li0.1282Cr0.0427Mn0.0342Ti0.0256P0.1538O0.6154,Li2.5Cr0.8333Mn0.6667Ti0.5P3O12,7.845156,0.06960935025430139
Li0.1282Cr0.0513Mn0.0256Ti0.0256P0.1538O0.6154,Li2.5Cr1.0Mn0.5Ti0.5P3O12,7.845156,0.27677903320832964
Li0.1282Cr0.0598Mn0.0171Ti0.0256P0.1538O0.6154,Li2.5Cr1.1667Mn0.3333Ti0.5P3O12,7.845156,0.2244022721567037
Li0.1282Cr0.0684Mn0.0085Ti0.0256P0.1538O0.6154,Li2.5Cr1.3333Mn0.1667Ti0.5P3O12,13.286617,0.14508611845102842
Li0.1282Cr0.0769Mn0.0000Ti0.0256P0.1538O0.6154,Li2.5Cr1.5Mn0.0Ti0.5P3O12,13.286617,
Li0.1356Cr0.0000Mn0.0847Ti0.0169P0.1525O0.6102,Li2.6667Cr0.0Mn1.6667Ti0.3333P3O12,7.480082,
Li0.1356Cr0.0085Mn0.0763Ti0.0169P0.1525O0.6102,Li2.6667Cr0.1667Mn1.5Ti0.3333P3O12,7.5443654,0.1482064842239148
Li0.1356Cr0.0254Mn0.0593Ti0.0169P0.1525O0.6102,Li2.6667Cr0.5Mn1.1667Ti0.3333P3O12,7.5443654,0.3491686702708196
Li0.1356Cr0.0339Mn0.0508Ti0.0169P0.1525O0.6102,Li2.6667Cr0.6667Mn1.0Ti0.3333P3O12,7.5443654,0.4176036212544808
Li0.1356Cr0.0508Mn0.0339Ti0.0169P0.1525O0.6102,Li2.6667Cr1.0Mn0.6667Ti0.3333P3O12,7.845156,0.3488416146497886
Li0.1356Cr0.0593Mn0.0254Ti0.0169P0.1525O0.6102,Li2.6667Cr1.1667Mn0.5Ti0.3333P3O12,7.845156,0.3136445807058521
Li0.1356Cr0.0763Mn0.0085Ti0.0169P0.1525O0.6102,Li2.6667Cr1.5Mn0.1667Ti0.3333P3O12,13.286617,0.1737746490121379
Li0.1356Cr0.0847Mn0.0000Ti0.0169P0.1525O0.6102,Li2.6667Cr1.6667Mn0.0Ti0.3333P3O12,13.699678,
Li0.1429Cr0.0000Mn0.0924Ti0.0084P0.1513O0.6050,Li2.8333Cr0.0Mn1.8333Ti0.1667P3O12,9.358569,
Li0.1429Cr0.0168Mn0.0756Ti0.0084P0.1513O0.6050,Li2.8333Cr0.3333Mn1.5Ti0.1667P3O12,9.4228525,0.31068620338057806
Li0.1429Cr0.0252Mn0.0672Ti0.0084P0.1513O0.6050,Li2.8333Cr0.5Mn1.3333Ti0.1667P3O12,9.4228525,0.4125873867687061
Li0.1429Cr0.0420Mn0.0504Ti0.0084P0.1513O0.6050,Li2.8333Cr0.8333Mn1.0Ti0.1667P3O12,9.138676,0.5516113288214008
Li0.1429Cr0.0504Mn0.0420Ti0.0084P0.1513O0.6050,Li2.8333Cr1.0Mn0.8333Ti0.1667P3O12,8.773392,0.4615899387942324
Li0.1429Cr0.0672Mn0.0252Ti0.0084P0.1513O0.6050,Li2.8333Cr1.3333Mn0.5Ti0.1667P3O12,17.018145,0.3973797498107966
Li0.1429Cr0.0756Mn0.0168Ti0.0084P0.1513O0.6050,Li2.8333Cr1.5Mn0.3333Ti0.1667P3O12,17.018145,0.3340874917973036
Li0.1429Cr0.0924Mn0.0000Ti0.0084P0.1513O0.6050,Li2.8333Cr1.8333Mn0.0Ti0.1667P3O12,17.431204,
Li0.1500Cr0.0000Mn0.1000Ti0.0000P0.1500O0.6000,Li3.0Cr0.0Mn2.0Ti0.0P3O12,12.704627,
Li0.1500Cr0.0083Mn0.0917Ti0.0000P0.1500O0.6000,Li3.0Cr0.1667Mn1.8333Ti0.0P3O12,12.704627,
Li0.1500Cr0.0167Mn0.0833Ti0.0000P0.1500O0.6000,Li3.0Cr0.3333Mn1.6667Ti0.0P3O12,12.704627,
Li0.1500Cr0.0250Mn0.0750Ti0.0000P0.1500O0.6000,Li3.0Cr0.5Mn1.5Ti0.0P3O12,12.76891,
Li0.1500Cr0.0333Mn0.0667Ti0.0000P0.1500O0.6000,Li3.0Cr0.6667Mn1.3333Ti0.0P3O12,12.76891,
Li0.1500Cr0.0417Mn0.0583Ti0.0000P0.1500O0.6000,Li3.0Cr0.8333Mn1.1667Ti0.0P3O12,12.484734,
Li0.1500Cr0.0500Mn0.0500Ti0.0000P0.1500O0.6000,Li3.0Cr1.0Mn1.0Ti0.0P3O12,12.484734,
Li0.1500Cr0.0583Mn0.0417Ti0.0000P0.1500O0.6000,Li3.0Cr1.1667Mn0.8333Ti0.0P3O12,12.119449,
Li0.1500Cr0.0667Mn0.0333Ti0.0000P0.1500O0.6000,Li3.0Cr1.3333Mn0.6667Ti0.0P3O12,17.490267,
Li0.1500Cr0.0750Mn0.0250Ti0.0000P0.1500O0.6000,Li3.0Cr1.5Mn0.5Ti0.0P3O12,17.490267,
Li0.1500Cr0.0833Mn0.0167Ti0.0000P0.1500O0.6000,Li3.0Cr1.6667Mn0.3333Ti0.0P3O12,17.903326,
Li0.1500Cr0.0917Mn0.0083Ti0.0000P0.1500O0.6000,Li3.0Cr1.8333Mn0.1667Ti0.0P3O12,17.903326,
Li0.1500Cr0.1000Mn0.0000Ti0.0000P0.1500O0.6000,Li3.0Cr2.0Mn0.0Ti0.0P3O12,17.903326,
Li0.0556Cr0.0000Ni0.0000Ti0.1111P0.1667O0.6667,Li1.0Cr0.0Ni0.0Ti2.0P3O12,7.7087817,
Li0.0642Cr0.0000Ni0.0092Ti0.1009P0.1651O0.6605,Li1.1667Cr0.0Ni0.1667Ti1.8333P3O12,7.7087817,
Li0.0642Cr0.0092Ni0.0000Ti0.1009P0.1651O0.6605,Li1.1667Cr0.1667Ni0.0Ti1.8333P3O12,7.7087817,
Li0.0727Cr0.0000Ni0.0182Ti0.0909P0.1636O0.6545,Li1.3333Cr0.0Ni0.3333Ti1.6667P3O12,7.7087817,
Li0.0727Cr0.0182Ni0.0000Ti0.0909P0.1636O0.6545,Li1.3333Cr0.3333Ni0.0Ti1.6667P3O12,7.7087817,
Li0.0811Cr0.0000Ni0.0270Ti0.0811P0.1622O0.6486,Li1.5Cr0.0Ni0.5Ti1.5P3O12,12.950637,
Li0.0811Cr0.0090Ni0.0180Ti0.0811P0.1622O0.6486,Li1.5Cr0.1667Ni0.3333Ti1.5P3O12,7.750805,0.054212791706335424
Li0.0811Cr0.0180Ni0.0090Ti0.0811P0.1622O0.6486,Li1.5Cr0.3333Ni0.1667Ti1.5P3O12,7.750805,0.11307911399036961
Li0.0811Cr0.0270Ni0.0000Ti0.0811P0.1622O0.6486,Li1.5Cr0.5Ni0.0Ti1.5P3O12,7.750805,
Li0.0893Cr0.0000Ni0.0357Ti0.0714P0.1607O0.6429,Li1.6667Cr0.0Ni0.6667Ti1.3333P3O12,13.329165,
Li0.0893Cr0.0089Ni0.0268Ti0.0714P0.1607O0.6429,Li1.6667Cr0.1667Ni0.5Ti1.3333P3O12,13.329165,0.0483400503028005
Li0.0893Cr0.0268Ni0.0089Ti0.0714P0.1607O0.6429,Li1.6667Cr0.5Ni0.1667Ti1.3333P3O12,8.129335,0.1537280205123932
Li0.0893Cr0.0357Ni0.0000Ti0.0714P0.1607O0.6429,Li1.6667Cr0.6667Ni0.0Ti1.3333P3O12,8.129335,
Li0.0973Cr0.0000Ni0.0442Ti0.0619P0.1593O0.6372,Li1.8333Cr0.0Ni0.8333Ti1.1667P3O12,13.373692,
Li0.0973Cr0.0177Ni0.0265Ti0.0619P0.1593O0.6372,Li1.8333Cr0.3333Ni0.5Ti1.1667P3O12,13.329165,0.08907437997176464
Li0.0973Cr0.0265Ni0.0177Ti0.0619P0.1593O0.6372,Li1.8333Cr0.5Ni0.3333Ti1.1667P3O12,8.129335,0.13230000420772933
Li0.0973Cr0.0442Ni0.0000Ti0.0619P0.1593O0.6372,Li1.8333Cr0.8333Ni0.0Ti1.1667P3O12,7.845156,
Li0.1053Cr0.0000Ni0.0526Ti0.0526P0.1579O0.6316,Li2.0Cr0.0Ni1.0Ti1.0P3O12,13.373692,
Li0.1053Cr0.0088Ni0.0439Ti0.0526P0.1579O0.6316,Li2.0Cr0.1667Ni0.8333Ti1.0P3O12,13.373692,0.04242078832993939
Li0.1053Cr0.0175Ni0.0351Ti0.0526P0.1579O0.6316,Li2.0Cr0.3333Ni0.6667Ti1.0P3O12,13.329165,0.0855204107304837
Li0.1053Cr0.0263Ni0.0263Ti0.0526P0.1579O0.6316,Li2.0Cr0.5Ni0.5Ti1.0P3O12,13.329165,0.12776080189411596
Li0.1053Cr0.0351Ni0.0175Ti0.0526P0.1579O0.6316,Li2.0Cr0.6667Ni0.3333Ti1.0P3O12,8.129335,0.16400068310514587
Li0.1053Cr0.0439Ni0.0088Ti0.0526P0.1579O0.6316,Li2.0Cr0.8333Ni0.1667Ti1.0P3O12,7.845156,0.22115002102778736
Li0.1053Cr0.0526Ni0.0000Ti0.0526P0.1579O0.6316,Li2.0Cr1.0Ni0.0Ti1.0P3O12,7.845156,
Li0.1130Cr0.0000Ni0.0609Ti0.0435P0.1565O0.6261,Li2.1667Cr0.0Ni1.1667Ti0.8333P3O12,13.441338,
Li0.1130Cr0.0087Ni0.0522Ti0.0435P0.1565O0.6261,Li2.1667Cr0.1667Ni1.0Ti0.8333P3O12,13.373692,0.08299467278065771
Li0.1130Cr0.0261Ni0.0348Ti0.0435P0.1565O0.6261,Li2.1667Cr0.5Ni0.6667Ti0.8333P3O12,13.329165,0.022518726746416463
Li0.1130Cr0.0348Ni0.0261Ti0.0435P0.1565O0.6261,Li2.1667Cr0.6667Ni0.5Ti0.8333P3O12,13.329165,0.027173939427707277
Li0.1130Cr0.0522Ni0.0087Ti0.0435P0.1565O0.6261,Li2.1667Cr1.0Ni0.1667Ti0.8333P3O12,7.845156,0.2730246197992752
Li0.1130Cr0.0609Ni0.0000Ti0.0435P0.1565O0.6261,Li2.1667Cr1.1667Ni0.0Ti0.8333P3O12,13.286617,
Li0.1207Cr0.0000Ni0.0690Ti0.0345P0.1552O0.6207,Li2.3333Cr0.0Ni1.3333Ti0.6667P3O12,13.441338,
Li0.1207Cr0.0172Ni0.0517Ti0.0345P0.1552O0.6207,Li2.3333Cr0.3333Ni1.0Ti0.6667P3O12,13.373692,0.17084587759307962
Li0.1207Cr0.0259Ni0.0431Ti0.0345P0.1552O0.6207,Li2.3333Cr0.5Ni0.8333Ti0.6667P3O12,13.373692,0.02246770355281533
Li0.1207Cr0.0431Ni0.0259Ti0.0345P0.1552O0.6207,Li2.3333Cr0.8333Ni0.5Ti0.6667P3O12,13.044989,0.03073206499478959
Li0.1207Cr0.0517Ni0.0172Ti0.0345P0.1552O0.6207,Li2.3333Cr1.0Ni0.3333Ti0.6667P3O12,7.845156,0.5014154330912753
Li0.1207Cr0.0690Ni0.0000Ti0.0345P0.1552O0.6207,Li2.3333Cr1.3333Ni0.0Ti0.6667P3O12,13.286617,
Li0.1282Cr0.0000Ni0.0769Ti0.0256P0.1538O0.6154,Li2.5Cr0.0Ni1.5Ti0.5P3O12,13.441338,
Li0.1282Cr0.0085Ni0.0684Ti0.0256P0.1538O0.6154,Li2.5Cr0.1667Ni1.3333Ti0.5P3O12,13.441338,0.10239363951825603
Li0.1282Cr0.0171Ni0.0598Ti0.0256P0.1538O0.6154,Li2.5Cr0.3333Ni1.1667Ti0.5P3O12,13.373692,0.1841518380594436
Li0.1282Cr0.0256Ni0.0513Ti0.0256P0.1538O0.6154,Li2.5Cr0.5Ni1.0Ti0.5P3O12,13.373692,0.2537390070377256
Li0.1282Cr0.0342Ni0.0427Ti0.0256P0.1538O0.6154,Li2.5Cr0.6667Ni0.8333Ti0.5P3O12,13.373692,0.026193143244113593
Li0.1282Cr0.0427Ni0.0342Ti0.0256P0.1538O0.6154,Li2.5Cr0.8333Ni0.6667Ti0.5P3O12,13.044989,0.029692105227247162
Li0.1282Cr0.0513Ni0.0256Ti0.0256P0.1538O0.6154,Li2.5Cr1.0Ni0.5Ti0.5P3O12,13.044989,0.6778232133504558
Li0.1282Cr0.0598Ni0.0171Ti0.0256P0.1538O0.6154,Li2.5Cr1.1667Ni0.3333Ti0.5P3O12,7.845156,0.5271556286337039
Li0.1282Cr0.0684Ni0.0085Ti0.0256P0.1538O0.6154,Li2.5Cr1.3333Ni0.1667Ti0.5P3O12,13.286617,0.32002800779289803
Li0.1282Cr0.0769Ni0.0000Ti0.0256P0.1538O0.6154,Li2.5Cr1.5Ni0.0Ti0.5P3O12,13.286617,
Li0.1356Cr0.0000Ni0.0847Ti0.0169P0.1525O0.6102,Li2.6667Cr0.0Ni1.6667Ti0.3333P3O12,13.38264,
Li0.1356Cr0.0085Ni0.0763Ti0.0169P0.1525O0.6102,Li2.6667Cr0.1667Ni1.5Ti0.3333P3O12,13.441338,0.11858524030739448
Li0.1356Cr0.0254Ni0.0593Ti0.0169P0.1525O0.6102,Li2.6667Cr0.5Ni1.1667Ti0.3333P3O12,13.373692,0.26790416718059207
Li0.1356Cr0.0339Ni0.0508Ti0.0169P0.1525O0.6102,Li2.6667Cr0.6667Ni1.0Ti0.3333P3O12,13.373692,0.3269704356882394
Li0.1356Cr0.0508Ni0.0339Ti0.0169P0.1525O0.6102,Li2.6667Cr1.0Ni0.6667Ti0.3333P3O12,13.044989,0.823280987280508
Li0.1356Cr0.0593Ni0.0254Ti0.0169P0.1525O0.6102,Li2.6667Cr1.1667Ni0.5Ti0.3333P3O12,13.044989,0.7076029242288143
Li0.1356Cr0.0763Ni0.0085Ti0.0169P0.1525O0.6102,Li2.6667Cr1.5Ni0.1667Ti0.3333P3O12,13.286617,0.35275985303701063
Li0.1356Cr0.0847Ni0.0000Ti0.0169P0.1525O0.6102,Li2.6667Cr1.6667Ni0.0Ti0.3333P3O12,13.699678,
Li0.1429Cr0.0000Ni0.0924Ti0.0084P0.1513O0.6050,Li2.8333Cr0.0Ni1.8333Ti0.1667P3O12,15.33442,
Li0.1429Cr0.0168Ni0.0756Ti0.0084P0.1513O0.6050,Li2.8333Cr0.3333Ni1.5Ti0.1667P3O12,15.393118,0.23052516630373948
Li0.1429Cr0.0252Ni0.0672Ti0.0084P0.1513O0.6050,Li2.8333Cr0.5Ni1.3333Ti0.1667P3O12,15.393118,0.30866552455045065
Li0.1429Cr0.0420Ni0.0504Ti0.0084P0.1513O0.6050,Li2.8333Cr0.8333Ni1.0Ti0.1667P3O12,15.041295,0.42352725259803176
Li0.1429Cr0.0504Ni0.0420Ti0.0084P0.1513O0.6050,Li2.8333Cr1.0Ni0.8333Ti0.1667P3O12,15.041295,0.9826017199720026
Li0.1429Cr0.0672Ni0.0252Ti0.0084P0.1513O0.6050,Li2.8333Cr1.3333Ni0.5Ti0.1667P3O12,20.438227,0.7617012670148928
Li0.1429Cr0.0756Ni0.0168Ti0.0084P0.1513O0.6050,Li2.8333Cr1.5Ni0.3333Ti0.1667P3O12,17.018145,0.6132108294576982
Li0.1429Cr0.0924Ni0.0000Ti0.0084P0.1513O0.6050,Li2.8333Cr1.8333Ni0.0Ti0.1667P3O12,17.431204,
Li0.1500Cr0.0000Ni0.1000Ti0.0000P0.1500O0.6000,Li3.0Cr0.0Ni2.0Ti0.0P3O12,18.680473,
Li0.1500Cr0.0083Ni0.0917Ti0.0000P0.1500O0.6000,Li3.0Cr0.1667Ni1.8333Ti0.0P3O12,18.680473,
Li0.1500Cr0.0167Ni0.0833Ti0.0000P0.1500O0.6000,Li3.0Cr0.3333Ni1.6667Ti0.0P3O12,18.680473,
Li0.1500Cr0.0250Ni0.0750Ti0.0000P0.1500O0.6000,Li3.0Cr0.5Ni1.5Ti0.0P3O12,18.739172,
Li0.1500Cr0.0333Ni0.0667Ti0.0000P0.1500O0.6000,Li3.0Cr0.6667Ni1.3333Ti0.0P3O12,18.739172,
Li0.1500Cr0.0417Ni0.0583Ti0.0000P0.1500O0.6000,Li3.0Cr0.8333Ni1.1667Ti0.0P3O12,18.38735,
Li0.1500Cr0.0500Ni0.0500Ti0.0000P0.1500O0.6000,Li3.0Cr1.0Ni1.0Ti0.0P3O12,18.38735,
Li0.1500Cr0.0583Ni0.0417Ti0.0000P0.1500O0.6000,Li3.0Cr1.1667Ni0.8333Ti0.0P3O12,18.38735,
Li0.1500Cr0.0667Ni0.0333Ti0.0000P0.1500O0.6000,Li3.0Cr1.3333Ni0.6667Ti0.0P3O12,20.910353,
Li0.1500Cr0.0750Ni0.0250Ti0.0000P0.1500O0.6000,Li3.0Cr1.5Ni0.5Ti0.0P3O12,20.910353,
Li0.1500Cr0.0833Ni0.0167Ti0.0000P0.1500O0.6000,Li3.0Cr1.6667Ni0.3333Ti0.0P3O12,17.903326,
Li0.1500Cr0.0917Ni0.0083Ti0.0000P0.1500O0.6000,Li3.0Cr1.8333Ni0.1667Ti0.0P3O12,17.903326,
Li0.1500Cr0.1000Ni0.0000Ti0.0000P0.1500O0.6000,Li3.0Cr2.0Ni0.0Ti0.0P3O12,17.903326,
Li0.0556Cr0.0000Sb0.0000Ti0.1111P0.1667O0.6667,Li1.0Cr0.0Sb0.0Ti2.0P3O12,7.7087817,
Li0.0642Cr0.0000Sb0.0092Ti0.1009P0.1651O0.6605,Li1.1667Cr0.0Sb0.1667Ti1.8333P3O12,7.7087817,
Li0.0642Cr0.0092Sb0.0000Ti0.1009P0.1651O0.6605,Li1.1667Cr0.1667Sb0.0Ti1.8333P3O12,7.7087817,
Li0.0727Cr0.0000Sb0.0182Ti0.0909P0.1636O0.6545,Li1.3333Cr0.0Sb0.3333Ti1.6667P3O12,8.6522875,
Li0.0727Cr0.0182Sb0.0000Ti0.0909P0.1636O0.6545,Li1.3333Cr0.3333Sb0.0Ti1.6667P3O12,7.7087817,
Li0.0811Cr0.0000Sb0.0270Ti0.0811P0.1622O0.6486,Li1.5Cr0.0Sb0.5Ti1.5P3O12,8.677033,
Li0.0811Cr0.0090Sb0.0180Ti0.0811P0.1622O0.6486,Li1.5Cr0.1667Sb0.3333Ti1.5P3O12,8.69431,0.0020630528091442188