formula,original_formula,thermal_expansion,li ion conductivity
Li0.0973Ga0.0265Y0.0177Ti0.0619P0.1593O0.6372,Li1.8333Ga0.5Y0.3333Ti1.1667P3O12,8.223158,0.2275811302736477
Li0.0973Ga0.0442Y0.0000Ti0.0619P0.1593O0.6372,Li1.8333Ga0.8333Y0.0Ti1.1667P3O12,8.099321,
Li0.1053Ga0.0000Y0.0526Ti0.0526P0.1579O0.6316,Li2.0Ga0.0Y1.0Ti1.0P3O12,8.253172,
Li0.1053Ga0.0088Y0.0439Ti0.0526P0.1579O0.6316,Li2.0Ga0.1667Y0.8333Ti1.0P3O12,8.253172,0.12886778889909592
Li0.1053Ga0.0175Y0.0351Ti0.0526P0.1579O0.6316,Li2.0Ga0.3333Y0.6667Ti1.0P3O12,8.223158,0.1655499492677656
Li0.1053Ga0.0263Y0.0263Ti0.0526P0.1579O0.6316,Li2.0Ga0.5Y0.5Ti1.0P3O12,8.223158,0.19453057701756893
Li0.1053Ga0.0351Y0.0175Ti0.0526P0.1579O0.6316,Li2.0Ga0.6667Y0.3333Ti1.0P3O12,8.223158,0.23011120200478058
Li0.1053Ga0.0439Y0.0088Ti0.0526P0.1579O0.6316,Li2.0Ga0.8333Y0.1667Ti1.0P3O12,8.099321,0.32172666639476655
Li0.1053Ga0.0526Y0.0000Ti0.0526P0.1579O0.6316,Li2.0Ga1.0Y0.0Ti1.0P3O12,8.099321,
Li0.1130Ga0.0000Y0.0609Ti0.0435P0.1565O0.6261,Li2.1667Ga0.0Y1.1667Ti0.8333P3O12,7.013641,
Li0.1130Ga0.0087Y0.0522Ti0.0435P0.1565O0.6261,Li2.1667Ga0.1667Y1.0Ti0.8333P3O12,8.253172,0.11827901141422642
Li0.1130Ga0.0261Y0.0348Ti0.0435P0.1565O0.6261,Li2.1667Ga0.5Y0.6667Ti0.8333P3O12,8.223158,3.856421558266616e-05
Li0.1130Ga0.0348Y0.0261Ti0.0435P0.1565O0.6261,Li2.1667Ga0.6667Y0.5Ti0.8333P3O12,8.223158,6.301780499921716e-05
Li0.1130Ga0.0522Y0.0087Ti0.0435P0.1565O0.6261,Li2.1667Ga1.0Y0.1667Ti0.8333P3O12,8.099321,0.03795174409922546
Li0.1130Ga0.0609Y0.0000Ti0.0435P0.1565O0.6261,Li2.1667Ga1.1667Y0.0Ti0.8333P3O12,6.7658024,
Li0.1207Ga0.0000Y0.0690Ti0.0345P0.1552O0.6207,Li2.3333Ga0.0Y1.3333Ti0.6667P3O12,7.013641,
Li0.1207Ga0.0172Y0.0517Ti0.0345P0.1552O0.6207,Li2.3333Ga0.3333Y1.0Ti0.6667P3O12,8.223158,0.16122221331334308
Li0.1207Ga0.0259Y0.0431Ti0.0345P0.1552O0.6207,Li2.3333Ga0.5Y0.8333Ti0.6667P3O12,8.223158,2.5036404983951345e-05
Li0.1207Ga0.0431Y0.0259Ti0.0345P0.1552O0.6207,Li2.3333Ga0.8333Y0.5Ti0.6667P3O12,8.223158,6.26203853748833e-05
Li0.1207Ga0.0517Y0.0172Ti0.0345P0.1552O0.6207,Li2.3333Ga1.0Y0.3333Ti0.6667P3O12,8.223158,0.04411226756469908
Li0.1207Ga0.0690Y0.0000Ti0.0345P0.1552O0.6207,Li2.3333Ga1.3333Y0.0Ti0.6667P3O12,6.7658024,
Li0.1282Ga0.0000Y0.0769Ti0.0256P0.1538O0.6154,Li2.5Ga0.0Y1.5Ti0.5P3O12,7.013641,
Li0.1282Ga0.0085Y0.0684Ti0.0256P0.1538O0.6154,Li2.5Ga0.1667Y1.3333Ti0.5P3O12,7.013641,0.13024551670556142
Li0.1282Ga0.0171Y0.0598Ti0.0256P0.1538O0.6154,Li2.5Ga0.3333Y1.1667Ti0.5P3O12,7.02602,0.1695617604819865
Li0.1282Ga0.0256Y0.0513Ti0.0256P0.1538O0.6154,Li2.5Ga0.5Y1.0Ti0.5P3O12,8.223158,0.17990817497147152
Li0.1282Ga0.0342Y0.0427Ti0.0256P0.1538O0.6154,Li2.5Ga0.6667Y0.8333Ti0.5P3O12,8.223158,2.434927603055681e-05
Li0.1282Ga0.0427Y0.0342Ti0.0256P0.1538O0.6154,Li2.5Ga0.8333Y0.6667Ti0.5P3O12,8.223158,3.693070352652945e-05
Li0.1282Ga0.0513Y0.0256Ti0.0256P0.1538O0.6154,Li2.5Ga1.0Y0.5Ti0.5P3O12,8.223158,0.05099629268264023
Li0.1282Ga0.0598Y0.0171Ti0.0256P0.1538O0.6154,Li2.5Ga1.1667Y0.3333Ti0.5P3O12,6.8896384,0.04738741233432998
Li0.1282Ga0.0684Y0.0085Ti0.0256P0.1538O0.6154,Li2.5Ga1.3333Y0.1667Ti0.5P3O12,6.7658024,0.04156097448904577
Li0.1282Ga0.0769Y0.0000Ti0.0256P0.1538O0.6154,Li2.5Ga1.5Y0.0Ti0.5P3O12,6.7658024,
Li0.1356Ga0.0000Y0.0847Ti0.0169P0.1525O0.6102,Li2.6667Ga0.0Y1.6667Ti0.3333P3O12,7.013641,
Li0.1356Ga0.0085Y0.0763Ti0.0169P0.1525O0.6102,Li2.6667Ga0.1667Y1.5Ti0.3333P3O12,7.013641,0.1455853406543209
Li0.1356Ga0.0254Y0.0593Ti0.0169P0.1525O0.6102,Li2.6667Ga0.5Y1.1667Ti0.3333P3O12,7.02602,0.19332510779240134
Li0.1356Ga0.0339Y0.0508Ti0.0169P0.1525O0.6102,Li2.6667Ga0.6667Y1.0Ti0.3333P3O12,8.223158,0.19610926500373754
Li0.1356Ga0.0508Y0.0339Ti0.0169P0.1525O0.6102,Li2.6667Ga1.0Y0.6667Ti0.3333P3O12,8.223158,0.05682999750788448
Li0.1356Ga0.0593Y0.0254Ti0.0169P0.1525O0.6102,Li2.6667Ga1.1667Y0.5Ti0.3333P3O12,6.8896384,0.055002228631645014
Li0.1356Ga0.0763Y0.0085Ti0.0169P0.1525O0.6102,Li2.6667Ga1.5Y0.1667Ti0.3333P3O12,6.7658024,0.04497436798347924
Li0.1356Ga0.0847Y0.0000Ti0.0169P0.1525O0.6102,Li2.6667Ga1.6667Y0.0Ti0.3333P3O12,6.7658024,
Li0.1429Ga0.0000Y0.0924Ti0.0084P0.1513O0.6050,Li2.8333Ga0.0Y1.8333Ti0.1667P3O12,10.745177,
Li0.1429Ga0.0168Y0.0756Ti0.0084P0.1513O0.6050,Li2.8333Ga0.3333Y1.5Ti0.1667P3O12,10.715163,0.2155709665684708
Li0.1429Ga0.0252Y0.0672Ti0.0084P0.1513O0.6050,Li2.8333Ga0.5Y1.3333Ti0.1667P3O12,10.715163,0.22634263579111943
Li0.1429Ga0.0420Y0.0504Ti0.0084P0.1513O0.6050,Li2.8333Ga0.8333Y1.0Ti0.1667P3O12,11.954691,0.24471531295968427
Li0.1429Ga0.0504Y0.0420Ti0.0084P0.1513O0.6050,Li2.8333Ga1.0Y0.8333Ti0.1667P3O12,11.954691,0.06922095982944086
Li0.1429Ga0.0672Y0.0252Ti0.0084P0.1513O0.6050,Li2.8333Ga1.3333Y0.5Ti0.1667P3O12,10.621176,0.06350728461802536
Li0.1429Ga0.0756Y0.0168Ti0.0084P0.1513O0.6050,Li2.8333Ga1.5Y0.3333Ti0.1667P3O12,10.621176,0.059191420026501095
Li0.1429Ga0.0924Y0.0000Ti0.0084P0.1513O0.6050,Li2.8333Ga1.8333Y0.0Ti0.1667P3O12,10.497339,
Li0.1500Ga0.0000Y0.1000Ti0.0000P0.1500O0.6000,Li3.0Ga0.0Y2.0Ti0.0P3O12,14.091233,
Li0.1500Ga0.0083Y0.0917Ti0.0000P0.1500O0.6000,Li3.0Ga0.1667Y1.8333Ti0.0P3O12,14.091233,
Li0.1500Ga0.0167Y0.0833Ti0.0000P0.1500O0.6000,Li3.0Ga0.3333Y1.6667Ti0.0P3O12,14.061219,
Li0.1500Ga0.0250Y0.0750Ti0.0000P0.1500O0.6000,Li3.0Ga0.5Y1.5Ti0.0P3O12,14.061219,
Li0.1500Ga0.0333Y0.0667Ti0.0000P0.1500O0.6000,Li3.0Ga0.6667Y1.3333Ti0.0P3O12,14.061219,
Li0.1500Ga0.0417Y0.0583Ti0.0000P0.1500O0.6000,Li3.0Ga0.8333Y1.1667Ti0.0P3O12,15.300747,
Li0.1500Ga0.0500Y0.0500Ti0.0000P0.1500O0.6000,Li3.0Ga1.0Y1.0Ti0.0P3O12,15.300747,
Li0.1500Ga0.0583Y0.0417Ti0.0000P0.1500O0.6000,Li3.0Ga1.1667Y0.8333Ti0.0P3O12,15.300747,
Li0.1500Ga0.0667Y0.0333Ti0.0000P0.1500O0.6000,Li3.0Ga1.3333Y0.6667Ti0.0P3O12,13.967232,
Li0.1500Ga0.0750Y0.0250Ti0.0000P0.1500O0.6000,Li3.0Ga1.5Y0.5Ti0.0P3O12,13.967232,
Li0.1500Ga0.0833Y0.0167Ti0.0000P0.1500O0.6000,Li3.0Ga1.6667Y0.3333Ti0.0P3O12,13.967232,
Li0.1500Ga0.0917Y0.0083Ti0.0000P0.1500O0.6000,Li3.0Ga1.8333Y0.1667Ti0.0P3O12,13.843395,
Li0.1500Ga0.1000Y0.0000Ti0.0000P0.1500O0.6000,Li3.0Ga2.0Y0.0Ti0.0P3O12,13.755412,
Li0.0556Ga0.0000Hf0.0000Ti0.1111P0.1667O0.6667,Li1.0Ga0.0Hf0.0Ti2.0P3O12,7.7087817,
Li0.0642Ga0.0000Hf0.0092Ti0.1009P0.1651O0.6605,Li1.1667Ga0.0Hf0.1667Ti1.8333P3O12,7.7087817,
Li0.0642Ga0.0092Hf0.0000Ti0.1009P0.1651O0.6605,Li1.1667Ga0.1667Hf0.0Ti1.8333P3O12,7.7087817,
Li0.0727Ga0.0000Hf0.0182Ti0.0909P0.1636O0.6545,Li1.3333Ga0.0Hf0.3333Ti1.6667P3O12,7.7087817,
Li0.0727Ga0.0182Hf0.0000Ti0.0909P0.1636O0.6545,Li1.3333Ga0.3333Hf0.0Ti1.6667P3O12,7.678768,
Li0.0811Ga0.0000Hf0.0270Ti0.0811P0.1622O0.6486,Li1.5Ga0.0Hf0.5Ti1.5P3O12,7.750805,
Li0.0811Ga0.0090Hf0.0180Ti0.0811P0.1622O0.6486,Li1.5Ga0.1667Hf0.3333Ti1.5P3O12,7.750805,0.03384379275876135
Li0.0811Ga0.0180Hf0.0090Ti0.0811P0.1622O0.6486,Li1.5Ga0.3333Hf0.1667Ti1.5P3O12,7.7207913,0.0486915130375754
Li0.0811Ga0.0270Hf0.0000Ti0.0811P0.1622O0.6486,Li1.5Ga0.5Hf0.0Ti1.5P3O12,7.7207913,
Li0.0893Ga0.0000Hf0.0357Ti0.0714P0.1607O0.6429,Li1.6667Ga0.0Hf0.6667Ti1.3333P3O12,8.1233835,
Li0.0893Ga0.0089Hf0.0268Ti0.0714P0.1607O0.6429,Li1.6667Ga0.1667Hf0.5Ti1.3333P3O12,8.129335,0.028859513188432218
Li0.0893Ga0.0268Hf0.0089Ti0.0714P0.1607O0.6429,Li1.6667Ga0.5Hf0.1667Ti1.3333P3O12,8.099321,0.045990409228641276
Li0.0893Ga0.0357Hf0.0000Ti0.0714P0.1607O0.6429,Li1.6667Ga0.6667Hf0.0Ti1.3333P3O12,8.099321,
Li0.0973Ga0.0000Hf0.0442Ti0.0619P0.1593O0.6372,Li1.8333Ga0.0Hf0.8333Ti1.1667P3O12,8.1233835,
Li0.0973Ga0.0177Hf0.0265Ti0.0619P0.1593O0.6372,Li1.8333Ga0.3333Hf0.5Ti1.1667P3O12,8.099321,0.028561686242019026
Li0.0973Ga0.0265Hf0.0177Ti0.0619P0.1593O0.6372,Li1.8333Ga0.5Hf0.3333Ti1.1667P3O12,8.099321,0.030712163419673682
Li0.0973Ga0.0442Hf0.0000Ti0.0619P0.1593O0.6372,Li1.8333Ga0.8333Hf0.0Ti1.1667P3O12,8.099321,
Li0.1053Ga0.0000Hf0.0526Ti0.0526P0.1579O0.6316,Li2.0Ga0.0Hf1.0Ti1.0P3O12,8.1233835,
Li0.1053Ga0.0088Hf0.0439Ti0.0526P0.1579O0.6316,Li2.0Ga0.1667Hf0.8333Ti1.0P3O12,8.1233835,0.022062204761440874
Li0.1053Ga0.0175Hf0.0351Ti0.0526P0.1579O0.6316,Li2.0Ga0.3333Hf0.6667Ti1.0P3O12,8.0933695,0.023873932685332215
Li0.1053Ga0.0263Hf0.0263Ti0.0526P0.1579O0.6316,Li2.0Ga0.5Hf0.5Ti1.0P3O12,8.099321,0.023948650386234095
Li0.1053Ga0.0351Hf0.0175Ti0.0526P0.1579O0.6316,Li2.0Ga0.6667Hf0.3333Ti1.0P3O12,8.099321,0.026646495900318062
Li0.1053Ga0.0439Hf0.0088Ti0.0526P0.1579O0.6316,Li2.0Ga0.8333Hf0.1667Ti1.0P3O12,8.099321,0.0389106796804628
Li0.1053Ga0.0526Hf0.0000Ti0.0526P0.1579O0.6316,Li2.0Ga1.0Hf0.0Ti1.0P3O12,8.099321,
Li0.1130Ga0.0000Hf0.0609Ti0.0435P0.1565O0.6261,Li2.1667Ga0.0Hf1.1667Ti0.8333P3O12,7.980404,
Li0.1130Ga0.0087Hf0.0522Ti0.0435P0.1565O0.6261,Li2.1667Ga0.1667Hf1.0Ti0.8333P3O12,8.1233835,0.04383710725702471
Li0.1130Ga0.0261Hf0.0348Ti0.0435P0.1565O0.6261,Li2.1667Ga0.5Hf0.6667Ti0.8333P3O12,8.0933695,1.0185050366769474e-06
Li0.1130Ga0.0348Hf0.0261Ti0.0435P0.1565O0.6261,Li2.1667Ga0.6667Hf0.5Ti0.8333P3O12,8.099321,1.31751264165475e-06
Li0.1130Ga0.0522Hf0.0087Ti0.0435P0.1565O0.6261,Li2.1667Ga1.0Hf0.1667Ti0.8333P3O12,8.099321,0.04218428388710739
Li0.1130Ga0.0609Hf0.0000Ti0.0435P0.1565O0.6261,Li2.1667Ga1.1667Hf0.0Ti0.8333P3O12,6.7658024,
Li0.1207Ga0.0000Hf0.0690Ti0.0345P0.1552O0.6207,Li2.3333Ga0.0Hf1.3333Ti0.6667P3O12,7.980404,
Li0.1207Ga0.0172Hf0.0517Ti0.0345P0.1552O0.6207,Li2.3333Ga0.3333Hf1.0Ti0.6667P3O12,8.0933695,0.06077397347951598
Li0.1207Ga0.0259Hf0.0431Ti0.0345P0.1552O0.6207,Li2.3333Ga0.5Hf0.8333Ti0.6667P3O12,8.0933695,7.315619973890941e-07
Li0.1207Ga0.0431Hf0.0259Ti0.0345P0.1552O0.6207,Li2.3333Ga0.8333Hf0.5Ti0.6667P3O12,8.099321,1.2242513680597186e-06
Li0.1207Ga0.0517Hf0.0172Ti0.0345P0.1552O0.6207,Li2.3333Ga1.0Hf0.3333Ti0.6667P3O12,8.099321,0.050570415625022895
Li0.1207Ga0.0690Hf0.0000Ti0.0345P0.1552O0.6207,Li2.3333Ga1.3333Hf0.0Ti0.6667P3O12,6.7658024,
Li0.1282Ga0.0000Hf0.0769Ti0.0256P0.1538O0.6154,Li2.5Ga0.0Hf1.5Ti0.5P3O12,7.980404,
Li0.1282Ga0.0085Hf0.0684Ti0.0256P0.1538O0.6154,Li2.5Ga0.1667Hf1.3333Ti0.5P3O12,7.980404,0.05401025577954682
Li0.1282Ga0.0171Hf0.0598Ti0.0256P0.1538O0.6154,Li2.5Ga0.3333Hf1.1667Ti0.5P3O12,7.950386,0.06747806153928253
Li0.1282Ga0.0256Hf0.0513Ti0.0256P0.1538O0.6154,Li2.5Ga0.5Hf1.0Ti0.5P3O12,8.0933695,0.07326109557733226
Li0.1282Ga0.0342Hf0.0427Ti0.0256P0.1538O0.6154,Li2.5Ga0.6667Hf0.8333Ti0.5P3O12,8.0933695,6.224747536555191e-07
Li0.1282Ga0.0427Hf0.0342Ti0.0256P0.1538O0.6154,Li2.5Ga0.8333Hf0.6667Ti0.5P3O12,8.0933695,7.891552262212431e-07
Li0.1282Ga0.0513Hf0.0256Ti0.0256P0.1538O0.6154,Li2.5Ga1.0Hf0.5Ti0.5P3O12,8.099321,0.05465955982690942
Li0.1282Ga0.0598Hf0.0171Ti0.0256P0.1538O0.6154,Li2.5Ga1.1667Hf0.3333Ti0.5P3O12,6.7658024,0.05086298276752591
Li0.1282Ga0.0684Hf0.0085Ti0.0256P0.1538O0.6154,Li2.5Ga1.3333Hf0.1667Ti0.5P3O12,6.7658024,0.0417061553896891
Li0.1282Ga0.0769Hf0.0000Ti0.0256P0.1538O0.6154,Li2.5Ga1.5Hf0.0Ti0.5P3O12,6.7658024,
Li0.1356Ga0.0000Hf0.0847Ti0.0169P0.1525O0.6102,Li2.6667Ga0.0Hf1.6667Ti0.3333P3O12,7.980404,
Li0.1356Ga0.0085Hf0.0763Ti0.0169P0.1525O0.6102,Li2.6667Ga0.1667Hf1.5Ti0.3333P3O12,7.980404,0.06400717179623959
Li0.1356Ga0.0254Hf0.0593Ti0.0169P0.1525O0.6102,Li2.6667Ga0.5Hf1.1667Ti0.3333P3O12,7.950386,0.08284345253500872
Li0.1356Ga0.0339Hf0.0508Ti0.0169P0.1525O0.6102,Li2.6667Ga0.6667Hf1.0Ti0.3333P3O12,8.0933695,0.08438990772272406
Li0.1356Ga0.0508Hf0.0339Ti0.0169P0.1525O0.6102,Li2.6667Ga1.0Hf0.6667Ti0.3333P3O12,8.0933695,0.054847003828008514
Li0.1356Ga0.0593Hf0.0254Ti0.0169P0.1525O0.6102,Li2.6667Ga1.1667Hf0.5Ti0.3333P3O12,6.7658024,0.05536771095231995
Li0.1356Ga0.0763Hf0.0085Ti0.0169P0.1525O0.6102,Li2.6667Ga1.5Hf0.1667Ti0.3333P3O12,6.7658024,0.04240272067370106
Li0.1356Ga0.0847Hf0.0000Ti0.0169P0.1525O0.6102,Li2.6667Ga1.6667Hf0.0Ti0.3333P3O12,6.7658024,
Li0.1429Ga0.0000Hf0.0924Ti0.0084P0.1513O0.6050,Li2.8333Ga0.0Hf1.8333Ti0.1667P3O12,9.871589,
Li0.1429Ga0.0168Hf0.0756Ti0.0084P0.1513O0.6050,Li2.8333Ga0.3333Hf1.5Ti0.1667P3O12,11.681923,0.0961799792405847
Li0.1429Ga0.0252Hf0.0672Ti0.0084P0.1513O0.6050,Li2.8333Ga0.5Hf1.3333Ti0.1667P3O12,11.681923,0.10308206666002237
Li0.1429Ga0.0420Hf0.0504Ti0.0084P0.1513O0.6050,Li2.8333Ga0.8333Hf1.0Ti0.1667P3O12,11.824903,0.10511382766946176
Li0.1429Ga0.0504Hf0.0420Ti0.0084P0.1513O0.6050,Li2.8333Ga1.0Hf0.8333Ti0.1667P3O12,11.824903,0.05804137321950607
Li0.1429Ga0.0672Hf0.0252Ti0.0084P0.1513O0.6050,Li2.8333Ga1.3333Hf0.5Ti0.1667P3O12,10.497339,0.05823657789652248
Li0.1429Ga0.0756Hf0.0168Ti0.0084P0.1513O0.6050,Li2.8333Ga1.5Hf0.3333Ti0.1667P3O12,10.497339,0.05432266403396547
Li0.1429Ga0.0924Hf0.0000Ti0.0084P0.1513O0.6050,Li2.8333Ga1.8333Hf0.0Ti0.1667P3O12,10.497339,
Li0.1500Ga0.0000Hf0.1000Ti0.0000P0.1500O0.6000,Li3.0Ga0.0Hf2.0Ti0.0P3O12,13.217646,
Li0.1500Ga0.0083Hf0.0917Ti0.0000P0.1500O0.6000,Li3.0Ga0.1667Hf1.8333Ti0.0P3O12,13.217646,
Li0.1500Ga0.0167Hf0.0833Ti0.0000P0.1500O0.6000,Li3.0Ga0.3333Hf1.6667Ti0.0P3O12,15.027979,
Li0.1500Ga0.0250Hf0.0750Ti0.0000P0.1500O0.6000,Li3.0Ga0.5Hf1.5Ti0.0P3O12,15.027979,
Li0.1500Ga0.0333Hf0.0667Ti0.0000P0.1500O0.6000,Li3.0Ga0.6667Hf1.3333Ti0.0P3O12,15.027979,
Li0.1500Ga0.0417Hf0.0583Ti0.0000P0.1500O0.6000,Li3.0Ga0.8333Hf1.1667Ti0.0P3O12,15.1709585,
Li0.1500Ga0.0500Hf0.0500Ti0.0000P0.1500O0.6000,Li3.0Ga1.0Hf1.0Ti0.0P3O12,15.1709585,
Li0.1500Ga0.0583Hf0.0417Ti0.0000P0.1500O0.6000,Li3.0Ga1.1667Hf0.8333Ti0.0P3O12,15.1709585,
Li0.1500Ga0.0667Hf0.0333Ti0.0000P0.1500O0.6000,Li3.0Ga1.3333Hf0.6667Ti0.0P3O12,13.837443,
Li0.1500Ga0.0750Hf0.0250Ti0.0000P0.1500O0.6000,Li3.0Ga1.5Hf0.5Ti0.0P3O12,13.843395,
Li0.1500Ga0.0833Hf0.0167Ti0.0000P0.1500O0.6000,Li3.0Ga1.6667Hf0.3333Ti0.0P3O12,13.843395,
Li0.1500Ga0.0917Hf0.0083Ti0.0000P0.1500O0.6000,Li3.0Ga1.8333Hf0.1667Ti0.0P3O12,13.843395,
Li0.1500Ga0.1000Hf0.0000Ti0.0000P0.1500O0.6000,Li3.0Ga2.0Hf0.0Ti0.0P3O12,13.755412,
Li0.0556Ga0.0000Bi0.0000Ti0.1111P0.1667O0.6667,Li1.0Ga0.0Bi0.0Ti2.0P3O12,7.7087817,
Li0.0642Ga0.0000Bi0.0092Ti0.1009P0.1651O0.6605,Li1.1667Ga0.0Bi0.1667Ti1.8333P3O12,7.7087817,
Li0.0642Ga0.0092Bi0.0000Ti0.1009P0.1651O0.6605,Li1.1667Ga0.1667Bi0.0Ti1.8333P3O12,7.7087817,
Li0.0727Ga0.0000Bi0.0182Ti0.0909P0.1636O0.6545,Li1.3333Ga0.0Bi0.3333Ti1.6667P3O12,7.7087817,
Li0.0727Ga0.0182Bi0.0000Ti0.0909P0.1636O0.6545,Li1.3333Ga0.3333Bi0.0Ti1.6667P3O12,7.678768,
Li0.0811Ga0.0000Bi0.0270Ti0.0811P0.1622O0.6486,Li1.5Ga0.0Bi0.5Ti1.5P3O12,7.750805,
Li0.0811Ga0.0090Bi0.0180Ti0.0811P0.1622O0.6486,Li1.5Ga0.1667Bi0.3333Ti1.5P3O12,7.750805,0.009350826328825206
Li0.0811Ga0.0180Bi0.0090Ti0.0811P0.1622O0.6486,Li1.5Ga0.3333Bi0.1667Ti1.5P3O12,7.7207913,0.009468520417401162
Li0.0811Ga0.0270Bi0.0000Ti0.0811P0.1622O0.6486,Li1.5Ga0.5Bi0.0Ti1.5P3O12,7.7207913,
Li0.0893Ga0.0000Bi0.0357Ti0.0714P0.1607O0.6429,Li1.6667Ga0.0Bi0.6667Ti1.3333P3O12,8.129335,
Li0.0893Ga0.0089Bi0.0268Ti0.0714P0.1607O0.6429,Li1.6667Ga0.1667Bi0.5Ti1.3333P3O12,8.129335,0.006901787776295904
Li0.0893Ga0.0268Bi0.0089Ti0.0714P0.1607O0.6429,Li1.6667Ga0.5Bi0.1667Ti1.3333P3O12,8.099321,0.0071128574661383625
Li0.0893Ga0.0357Bi0.0000Ti0.0714P0.1607O0.6429,Li1.6667Ga0.6667Bi0.0Ti1.3333P3O12,8.099321,
Li0.0973Ga0.0000Bi0.0442Ti0.0619P0.1593O0.6372,Li1.8333Ga0.0Bi0.8333Ti1.1667P3O12,8.129335,
Li0.0973Ga0.0177Bi0.0265Ti0.0619P0.1593O0.6372,Li1.8333Ga0.3333Bi0.5Ti1.1667P3O12,8.099321,0.004204482411043481
Li0.0973Ga0.0265Bi0.0177Ti0.0619P0.1593O0.6372,Li1.8333Ga0.5Bi0.3333Ti1.1667P3O12,8.099321,0.004083920779613647
Li0.0973Ga0.0442Bi0.0000Ti0.0619P0.1593O0.6372,Li1.8333Ga0.8333Bi0.0Ti1.1667P3O12,8.099321,
Li0.1053Ga0.0000Bi0.0526Ti0.0526P0.1579O0.6316,Li2.0Ga0.0Bi1.0Ti1.0P3O12,8.129335,
Li0.1053Ga0.0088Bi0.0439Ti0.0526P0.1579O0.6316,Li2.0Ga0.1667Bi0.8333Ti1.0P3O12,8.129335,0.004232718038358671
Li0.1053Ga0.0175Bi0.0351Ti0.0526P0.1579O0.6316,Li2.0Ga0.3333Bi0.6667Ti1.0P3O12,8.099321,0.0031838498333602227
Li0.1053Ga0.0263Bi0.0263Ti0.0526P0.1579O0.6316,Li2.0Ga0.5Bi0.5Ti1.0P3O12,8.099321,0.002842066673185931
Li0.1053Ga0.0351Bi0.0175Ti0.0526P0.1579O0.6316,Li2.0Ga0.6667Bi0.3333Ti1.0P3O12,8.099321,0.00314519288831686
Li0.1053Ga0.0439Bi0.0088Ti0.0526P0.1579O0.6316,Li2.0Ga0.8333Bi0.1667Ti1.0P3O12,8.099321,0.004506982180700149
Li0.1053Ga0.0526Bi0.0000Ti0.0526P0.1579O0.6316,Li2.0Ga1.0Bi0.0Ti1.0P3O12,8.099321,
Li0.1130Ga0.0000Bi0.0609Ti0.0435P0.1565O0.6261,Li2.1667Ga0.0Bi1.1667Ti0.8333P3O12,8.129335,
Li0.1130Ga0.0087Bi0.0522Ti0.0435P0.1565O0.6261,Li2.1667Ga0.1667Bi1.0Ti0.8333P3O12,8.129335,0.14968056540370278
Li0.1130Ga0.0261Bi0.0348Ti0.0435P0.1565O0.6261,Li2.1667Ga0.5Bi0.6667Ti0.8333P3O12,8.099321,2.0784084528479282e-09
Li0.1130Ga0.0348Bi0.0261Ti0.0435P0.1565O0.6261,Li2.1667Ga0.6667Bi0.5Ti0.8333P3O12,8.099321,2.42541271506542e-09
Li0.1130Ga0.0522Bi0.0087Ti0.0435P0.1565O0.6261,Li2.1667Ga1.0Bi0.1667Ti0.8333P3O12,8.099321,0.04466876137095601
Li0.1130Ga0.0609Bi0.0000Ti0.0435P0.1565O0.6261,Li2.1667Ga1.1667Bi0.0Ti0.8333P3O12,6.7658024,
Li0.1207Ga0.0000Bi0.0690Ti0.0345P0.1552O0.6207,Li2.3333Ga0.0Bi1.3333Ti0.6667P3O12,8.129335,
Li0.1207Ga0.0172Bi0.0517Ti0.0345P0.1552O0.6207,Li2.3333Ga0.3333Bi1.0Ti0.6667P3O12,8.099321,0.19626090855391204
Li0.1207Ga0.0259Bi0.0431Ti0.0345P0.1552O0.6207,Li2.3333Ga0.5Bi0.8333Ti0.6667P3O12,8.099321,1.4558014580182905e-09
Li0.1207Ga0.0431Bi0.0259Ti0.0345P0.1552O0.6207,Li2.3333Ga0.8333Bi0.5Ti0.6667P3O12,8.099321,1.95227795373236e-09
Li0.1207Ga0.0517Bi0.0172Ti0.0345P0.1552O0.6207,Li2.3333Ga1.0Bi0.3333Ti0.6667P3O12,8.099321,0.05751762049819328
Li0.1207Ga0.0690Bi0.0000Ti0.0345P0.1552O0.6207,Li2.3333Ga1.3333Bi0.0Ti0.6667P3O12,6.7658024,
Li0.1282Ga0.0000Bi0.0769Ti0.0256P0.1538O0.6154,Li2.5Ga0.0Bi1.5Ti0.5P3O12,8.129335,
Li0.1282Ga0.0085Bi0.0684Ti0.0256P0.1538O0.6154,Li2.5Ga0.1667Bi1.3333Ti0.5P3O12,8.129335,0.16350948023434658
Li0.1282Ga0.0171Bi0.0598Ti0.0256P0.1538O0.6154,Li2.5Ga0.3333Bi1.1667Ti0.5P3O12,8.099321,0.20836236777659992
Li0.1282Ga0.0256Bi0.0513Ti0.0256P0.1538O0.6154,Li2.5Ga0.5Bi1.0Ti0.5P3O12,8.099321,0.23573334891953043
Li0.1282Ga0.0342Bi0.0427Ti0.0256P0.1538O0.6154,Li2.5Ga0.6667Bi0.8333Ti0.5P3O12,8.099321,1.101243783898062e-09
Li0.1282Ga0.0427Bi0.0342Ti0.0256P0.1538O0.6154,Li2.5Ga0.8333Bi0.6667Ti0.5P3O12,8.099321,1.2764274345102937e-09
Li0.1282Ga0.0513Bi0.0256Ti0.0256P0.1538O0.6154,Li2.5Ga1.0Bi0.5Ti0.5P3O12,8.099321,0.07165186022013952
Li0.1282Ga0.0598Bi0.0171Ti0.0256P0.1538O0.6154,Li2.5Ga1.1667Bi0.3333Ti0.5P3O12,6.7658024,0.05993695865150205
Li0.1282Ga0.0684Bi0.0085Ti0.0256P0.1538O0.6154,Li2.5Ga1.3333Bi0.1667Ti0.5P3O12,6.7658024,0.04811352640523242
Li0.1282Ga0.0769Bi0.0000Ti0.0256P0.1538O0.6154,Li2.5Ga1.5Bi0.0Ti0.5P3O12,6.7658024,
Li0.1356Ga0.0000Bi0.0847Ti0.0169P0.1525O0.6102,Li2.6667Ga0.0Bi1.6667Ti0.3333P3O12,8.129335,
Li0.1356Ga0.0085Bi0.0763Ti0.0169P0.1525O0.6102,Li2.6667Ga0.1667Bi1.5Ti0.3333P3O12,8.129335,0.1779563624951117
Li0.1356Ga0.0254Bi0.0593Ti0.0169P0.1525O0.6102,Li2.6667Ga0.5Bi1.1667Ti0.3333P3O12,8.099321,0.2549487541173654
Li0.1356Ga0.0339Bi0.0508Ti0.0169P0.1525O0.6102,Li2.6667Ga0.6667Bi1.0Ti0.3333P3O12,8.099321,0.27503127110600417
Li0.1356Ga0.0508Bi0.0339Ti0.0169P0.1525O0.6102,Li2.6667Ga1.0Bi0.6667Ti0.3333P3O12,8.099321,0.08370004220838512
Li0.1356Ga0.0593Bi0.0254Ti0.0169P0.1525O0.6102,Li2.6667Ga1.1667Bi0.5Ti0.3333P3O12,6.7658024,0.07529484628263196
Li0.1356Ga0.0763Bi0.0085Ti0.0169P0.1525O0.6102,Li2.6667Ga1.5Bi0.1667Ti0.3333P3O12,6.7658024,0.05029101513068079
Li0.1356Ga0.0847Bi0.0000Ti0.0169P0.1525O0.6102,Li2.6667Ga1.6667Bi0.0Ti0.3333P3O12,6.7658024,
Li0.1429Ga0.0000Bi0.0924Ti0.0084P0.1513O0.6050,Li2.8333Ga0.0Bi1.8333Ti0.1667P3O12,11.860868,
Li0.1429Ga0.0168Bi0.0756Ti0.0084P0.1513O0.6050,Li2.8333Ga0.3333Bi1.5Ti0.1667P3O12,11.830854,0.266324125101771
Li0.1429Ga0.0252Bi0.0672Ti0.0084P0.1513O0.6050,Li2.8333Ga0.5Bi1.3333Ti0.1667P3O12,11.830854,0.2995026118077864
Li0.1429Ga0.0420Bi0.0504Ti0.0084P0.1513O0.6050,Li2.8333Ga0.8333Bi1.0Ti0.1667P3O12,11.830854,0.33824122772284937
Li0.1429Ga0.0504Bi0.0420Ti0.0084P0.1513O0.6050,Li2.8333Ga1.0Bi0.8333Ti0.1667P3O12,11.830854,0.09739803295923308
Li0.1429Ga0.0672Bi0.0252Ti0.0084P0.1513O0.6050,Li2.8333Ga1.3333Bi0.5Ti0.1667P3O12,10.497339,0.0812917694884425
Li0.1429Ga0.0756Bi0.0168Ti0.0084P0.1513O0.6050,Li2.8333Ga1.5Bi0.3333Ti0.1667P3O12,10.497339,0.06932774862694382
Li0.1429Ga0.0924Bi0.0000Ti0.0084P0.1513O0.6050,Li2.8333Ga1.8333Bi0.0Ti0.1667P3O12,10.497339,
Li0.1500Ga0.0000Bi0.1000Ti0.0000P0.1500O0.6000,Li3.0Ga0.0Bi2.0Ti0.0P3O12,14.981435,