formula,original_formula,thermal_expansion,li ion conductivity
Li0.1356Co0.0508Sc0.0339Ti0.0169P0.1525O0.6102,Li2.6667Co1.0Sc0.6667Ti0.3333P3O12,6.528375,0.5654769957170374
Li0.1356Co0.0593Sc0.0254Ti0.0169P0.1525O0.6102,Li2.6667Co1.1667Sc0.5Ti0.3333P3O12,6.528375,0.50328604668461
Li0.1356Co0.0763Sc0.0085Ti0.0169P0.1525O0.6102,Li2.6667Co1.5Sc0.1667Ti0.3333P3O12,9.423878,0.28212393327545016
Li0.1356Co0.0847Sc0.0000Ti0.0169P0.1525O0.6102,Li2.6667Co1.6667Sc0.0Ti0.3333P3O12,8.147218,
Li0.1429Co0.0000Sc0.0924Ti0.0084P0.1513O0.6050,Li2.8333Co0.0Sc1.8333Ti0.1667P3O12,10.380352,
Li0.1429Co0.0168Sc0.0756Ti0.0084P0.1513O0.6050,Li2.8333Co0.3333Sc1.5Ti0.1667P3O12,10.215678,0.526467891076395
Li0.1429Co0.0252Sc0.0672Ti0.0084P0.1513O0.6050,Li2.8333Co0.5Sc1.3333Ti0.1667P3O12,10.215678,0.6367460858695008
Li0.1429Co0.0420Sc0.0504Ti0.0084P0.1513O0.6050,Li2.8333Co0.8333Sc1.0Ti0.1667P3O12,10.259913,0.7827990555349377
Li0.1429Co0.0504Sc0.0420Ti0.0084P0.1513O0.6050,Li2.8333Co1.0Sc0.8333Ti0.1667P3O12,10.259913,0.7768232368539691
Li0.1429Co0.0672Sc0.0252Ti0.0084P0.1513O0.6050,Li2.8333Co1.3333Sc0.5Ti0.1667P3O12,10.259913,0.6463864992936862
Li0.1429Co0.0756Sc0.0168Ti0.0084P0.1513O0.6050,Li2.8333Co1.5Sc0.3333Ti0.1667P3O12,16.08518,0.5365476499225462
Li0.1429Co0.0924Sc0.0000Ti0.0084P0.1513O0.6050,Li2.8333Co1.8333Sc0.0Ti0.1667P3O12,11.87875,
Li0.1500Co0.0000Sc0.1000Ti0.0000P0.1500O0.6000,Li3.0Co0.0Sc2.0Ti0.0P3O12,11.964293,
Li0.1500Co0.0083Sc0.0917Ti0.0000P0.1500O0.6000,Li3.0Co0.1667Sc1.8333Ti0.0P3O12,11.964293,
Li0.1500Co0.0167Sc0.0833Ti0.0000P0.1500O0.6000,Li3.0Co0.3333Sc1.6667Ti0.0P3O12,11.799619,
Li0.1500Co0.0250Sc0.0750Ti0.0000P0.1500O0.6000,Li3.0Co0.5Sc1.5Ti0.0P3O12,11.799619,
Li0.1500Co0.0333Sc0.0667Ti0.0000P0.1500O0.6000,Li3.0Co0.6667Sc1.3333Ti0.0P3O12,11.799619,
Li0.1500Co0.0417Sc0.0583Ti0.0000P0.1500O0.6000,Li3.0Co0.8333Sc1.1667Ti0.0P3O12,11.843854,
Li0.1500Co0.0500Sc0.0500Ti0.0000P0.1500O0.6000,Li3.0Co1.0Sc1.0Ti0.0P3O12,11.843854,
Li0.1500Co0.0583Sc0.0417Ti0.0000P0.1500O0.6000,Li3.0Co1.1667Sc0.8333Ti0.0P3O12,11.843854,
Li0.1500Co0.0667Sc0.0333Ti0.0000P0.1500O0.6000,Li3.0Co1.3333Sc0.6667Ti0.0P3O12,11.843854,
Li0.1500Co0.0750Sc0.0250Ti0.0000P0.1500O0.6000,Li3.0Co1.5Sc0.5Ti0.0P3O12,11.843854,
Li0.1500Co0.0833Sc0.0167Ti0.0000P0.1500O0.6000,Li3.0Co1.6667Sc0.3333Ti0.0P3O12,17.669125,
Li0.1500Co0.0917Sc0.0083Ti0.0000P0.1500O0.6000,Li3.0Co1.8333Sc0.1667Ti0.0P3O12,15.831924,
Li0.1500Co0.1000Sc0.0000Ti0.0000P0.1500O0.6000,Li3.0Co2.0Sc0.0Ti0.0P3O12,15.21023,
Li0.0556Co0.0000Y0.0000Ti0.1111P0.1667O0.6667,Li1.0Co0.0Y0.0Ti2.0P3O12,7.7087817,
Li0.0642Co0.0000Y0.0092Ti0.1009P0.1651O0.6605,Li1.1667Co0.0Y0.1667Ti1.8333P3O12,7.7087817,
Li0.0642Co0.0092Y0.0000Ti0.1009P0.1651O0.6605,Li1.1667Co0.1667Y0.0Ti1.8333P3O12,7.7087817,
Li0.0727Co0.0000Y0.0182Ti0.0909P0.1636O0.6545,Li1.3333Co0.0Y0.3333Ti1.6667P3O12,7.8326178,
Li0.0727Co0.0182Y0.0000Ti0.0909P0.1636O0.6545,Li1.3333Co0.3333Y0.0Ti1.6667P3O12,7.7087817,
Li0.0811Co0.0000Y0.0270Ti0.0811P0.1622O0.6486,Li1.5Co0.0Y0.5Ti1.5P3O12,7.874641,
Li0.0811Co0.0090Y0.0180Ti0.0811P0.1622O0.6486,Li1.5Co0.1667Y0.3333Ti1.5P3O12,7.874641,0.9695774760932891
Li0.0811Co0.0180Y0.0090Ti0.0811P0.1622O0.6486,Li1.5Co0.3333Y0.1667Ti1.5P3O12,7.750805,1.798236510011296
Li0.0811Co0.0270Y0.0000Ti0.0811P0.1622O0.6486,Li1.5Co0.5Y0.0Ti1.5P3O12,7.750805,
Li0.0893Co0.0000Y0.0357Ti0.0714P0.1607O0.6429,Li1.6667Co0.0Y0.6667Ti1.3333P3O12,8.253172,
Li0.0893Co0.0089Y0.0268Ti0.0714P0.1607O0.6429,Li1.6667Co0.1667Y0.5Ti1.3333P3O12,8.253172,0.8971373235939869
Li0.0893Co0.0268Y0.0089Ti0.0714P0.1607O0.6429,Li1.6667Co0.5Y0.1667Ti1.3333P3O12,8.129335,2.2783814601965644
Li0.0893Co0.0357Y0.0000Ti0.0714P0.1607O0.6429,Li1.6667Co0.6667Y0.0Ti1.3333P3O12,8.129335,
Li0.0973Co0.0000Y0.0442Ti0.0619P0.1593O0.6372,Li1.8333Co0.0Y0.8333Ti1.1667P3O12,8.253172,
Li0.0973Co0.0177Y0.0265Ti0.0619P0.1593O0.6372,Li1.8333Co0.3333Y0.5Ti1.1667P3O12,8.253172,1.466204131717187
Li0.0973Co0.0265Y0.0177Ti0.0619P0.1593O0.6372,Li1.8333Co0.5Y0.3333Ti1.1667P3O12,8.253172,2.035225732351641
Li0.0973Co0.0442Y0.0000Ti0.0619P0.1593O0.6372,Li1.8333Co0.8333Y0.0Ti1.1667P3O12,8.147218,
Li0.1053Co0.0000Y0.0526Ti0.0526P0.1579O0.6316,Li2.0Co0.0Y1.0Ti1.0P3O12,8.253172,
Li0.1053Co0.0088Y0.0439Ti0.0526P0.1579O0.6316,Li2.0Co0.1667Y0.8333Ti1.0P3O12,8.253172,0.8350704713250796
Li0.1053Co0.0175Y0.0351Ti0.0526P0.1579O0.6316,Li2.0Co0.3333Y0.6667Ti1.0P3O12,8.253172,1.3994441241606266
Li0.1053Co0.0263Y0.0263Ti0.0526P0.1579O0.6316,Li2.0Co0.5Y0.5Ti1.0P3O12,8.253172,1.9229741890564243
Li0.1053Co0.0351Y0.0175Ti0.0526P0.1579O0.6316,Li2.0Co0.6667Y0.3333Ti1.0P3O12,8.253172,2.4209509809408156
Li0.1053Co0.0439Y0.0088Ti0.0526P0.1579O0.6316,Li2.0Co0.8333Y0.1667Ti1.0P3O12,8.147218,3.028442219137933
Li0.1053Co0.0526Y0.0000Ti0.0526P0.1579O0.6316,Li2.0Co1.0Y0.0Ti1.0P3O12,8.147218,
Li0.1130Co0.0000Y0.0609Ti0.0435P0.1565O0.6261,Li2.1667Co0.0Y1.1667Ti0.8333P3O12,7.013641,
Li0.1130Co0.0087Y0.0522Ti0.0435P0.1565O0.6261,Li2.1667Co0.1667Y1.0Ti0.8333P3O12,8.253172,0.07403746204333288
Li0.1130Co0.0261Y0.0348Ti0.0435P0.1565O0.6261,Li2.1667Co0.5Y0.6667Ti0.8333P3O12,8.253172,0.5162749912447053
Li0.1130Co0.0348Y0.0261Ti0.0435P0.1565O0.6261,Li2.1667Co0.6667Y0.5Ti0.8333P3O12,8.253172,0.6574962300311085
Li0.1130Co0.0522Y0.0087Ti0.0435P0.1565O0.6261,Li2.1667Co1.0Y0.1667Ti0.8333P3O12,8.147218,0.08971964262198584
Li0.1130Co0.0609Y0.0000Ti0.0435P0.1565O0.6261,Li2.1667Co1.1667Y0.0Ti0.8333P3O12,8.147218,
Li0.1207Co0.0000Y0.0690Ti0.0345P0.1552O0.6207,Li2.3333Co0.0Y1.3333Ti0.6667P3O12,7.013641,
Li0.1207Co0.0172Y0.0517Ti0.0345P0.1552O0.6207,Li2.3333Co0.3333Y1.0Ti0.6667P3O12,8.253172,0.12164071240978955
Li0.1207Co0.0259Y0.0431Ti0.0345P0.1552O0.6207,Li2.3333Co0.5Y0.8333Ti0.6667P3O12,8.253172,0.46357835706842226
Li0.1207Co0.0431Y0.0259Ti0.0345P0.1552O0.6207,Li2.3333Co0.8333Y0.5Ti0.6667P3O12,8.271054,0.7023657717046793
Li0.1207Co0.0517Y0.0172Ti0.0345P0.1552O0.6207,Li2.3333Co1.0Y0.3333Ti0.6667P3O12,8.271054,0.10338180559869466
Li0.1207Co0.0690Y0.0000Ti0.0345P0.1552O0.6207,Li2.3333Co1.3333Y0.0Ti0.6667P3O12,8.147218,
Li0.1282Co0.0000Y0.0769Ti0.0256P0.1538O0.6154,Li2.5Co0.0Y1.5Ti0.5P3O12,7.013641,
Li0.1282Co0.0085Y0.0684Ti0.0256P0.1538O0.6154,Li2.5Co0.1667Y1.3333Ti0.5P3O12,7.013641,0.08570615441494474
Li0.1282Co0.0171Y0.0598Ti0.0256P0.1538O0.6154,Li2.5Co0.3333Y1.1667Ti0.5P3O12,7.0560336,0.12695612814004842
Li0.1282Co0.0256Y0.0513Ti0.0256P0.1538O0.6154,Li2.5Co0.5Y1.0Ti0.5P3O12,8.253172,0.15861258677935672
Li0.1282Co0.0342Y0.0427Ti0.0256P0.1538O0.6154,Li2.5Co0.6667Y0.8333Ti0.5P3O12,8.253172,0.5075049505371615
Li0.1282Co0.0427Y0.0342Ti0.0256P0.1538O0.6154,Li2.5Co0.8333Y0.6667Ti0.5P3O12,8.271054,0.6063989965950536
Li0.1282Co0.0513Y0.0256Ti0.0256P0.1538O0.6154,Li2.5Co1.0Y0.5Ti0.5P3O12,8.271054,0.1123929447263253
Li0.1282Co0.0598Y0.0171Ti0.0256P0.1538O0.6154,Li2.5Co1.1667Y0.3333Ti0.5P3O12,8.271054,0.1073670236294904
Li0.1282Co0.0684Y0.0085Ti0.0256P0.1538O0.6154,Li2.5Co1.3333Y0.1667Ti0.5P3O12,8.147218,0.09533886579296148
Li0.1282Co0.0769Y0.0000Ti0.0256P0.1538O0.6154,Li2.5Co1.5Y0.0Ti0.5P3O12,8.147218,
Li0.1356Co0.0000Y0.0847Ti0.0169P0.1525O0.6102,Li2.6667Co0.0Y1.6667Ti0.3333P3O12,7.013641,
Li0.1356Co0.0085Y0.0763Ti0.0169P0.1525O0.6102,Li2.6667Co0.1667Y1.5Ti0.3333P3O12,7.013641,0.09549223782736882
Li0.1356Co0.0254Y0.0593Ti0.0169P0.1525O0.6102,Li2.6667Co0.5Y1.1667Ti0.3333P3O12,7.0560336,0.1705397374338742
Li0.1356Co0.0339Y0.0508Ti0.0169P0.1525O0.6102,Li2.6667Co0.6667Y1.0Ti0.3333P3O12,8.253172,0.20041498428654259
Li0.1356Co0.0508Y0.0339Ti0.0169P0.1525O0.6102,Li2.6667Co1.0Y0.6667Ti0.3333P3O12,8.271054,0.11915473825787389
Li0.1356Co0.0593Y0.0254Ti0.0169P0.1525O0.6102,Li2.6667Co1.1667Y0.5Ti0.3333P3O12,8.271054,0.11687672749173338
Li0.1356Co0.0763Y0.0085Ti0.0169P0.1525O0.6102,Li2.6667Co1.5Y0.1667Ti0.3333P3O12,8.147218,0.10068675955573332
Li0.1356Co0.0847Y0.0000Ti0.0169P0.1525O0.6102,Li2.6667Co1.6667Y0.0Ti0.3333P3O12,8.147218,
Li0.1429Co0.0000Y0.0924Ti0.0084P0.1513O0.6050,Li2.8333Co0.0Y1.8333Ti0.1667P3O12,10.745177,
Li0.1429Co0.0168Y0.0756Ti0.0084P0.1513O0.6050,Li2.8333Co0.3333Y1.5Ti0.1667P3O12,10.745177,0.15916044876411103
Li0.1429Co0.0252Y0.0672Ti0.0084P0.1513O0.6050,Li2.8333Co0.5Y1.3333Ti0.1667P3O12,10.745177,0.19968575744948674
Li0.1429Co0.0420Y0.0504Ti0.0084P0.1513O0.6050,Li2.8333Co0.8333Y1.0Ti0.1667P3O12,12.002586,0.2621096551238891
Li0.1429Co0.0504Y0.0420Ti0.0084P0.1513O0.6050,Li2.8333Co1.0Y0.8333Ti0.1667P3O12,12.002586,0.140238428678997
Li0.1429Co0.0672Y0.0252Ti0.0084P0.1513O0.6050,Li2.8333Co1.3333Y0.5Ti0.1667P3O12,12.002586,0.1304561173931396
Li0.1429Co0.0756Y0.0168Ti0.0084P0.1513O0.6050,Li2.8333Co1.5Y0.3333Ti0.1667P3O12,12.002586,0.12293786820533167
Li0.1429Co0.0924Y0.0000Ti0.0084P0.1513O0.6050,Li2.8333Co1.8333Y0.0Ti0.1667P3O12,11.87875,
Li0.1500Co0.0000Y0.1000Ti0.0000P0.1500O0.6000,Li3.0Co0.0Y2.0Ti0.0P3O12,14.091233,
Li0.1500Co0.0083Y0.0917Ti0.0000P0.1500O0.6000,Li3.0Co0.1667Y1.8333Ti0.0P3O12,14.091233,
Li0.1500Co0.0167Y0.0833Ti0.0000P0.1500O0.6000,Li3.0Co0.3333Y1.6667Ti0.0P3O12,14.091233,
Li0.1500Co0.0250Y0.0750Ti0.0000P0.1500O0.6000,Li3.0Co0.5Y1.5Ti0.0P3O12,14.091233,
Li0.1500Co0.0333Y0.0667Ti0.0000P0.1500O0.6000,Li3.0Co0.6667Y1.3333Ti0.0P3O12,14.091233,
Li0.1500Co0.0417Y0.0583Ti0.0000P0.1500O0.6000,Li3.0Co0.8333Y1.1667Ti0.0P3O12,15.348642,
Li0.1500Co0.0500Y0.0500Ti0.0000P0.1500O0.6000,Li3.0Co1.0Y1.0Ti0.0P3O12,15.348642,
Li0.1500Co0.0583Y0.0417Ti0.0000P0.1500O0.6000,Li3.0Co1.1667Y0.8333Ti0.0P3O12,15.348642,
Li0.1500Co0.0667Y0.0333Ti0.0000P0.1500O0.6000,Li3.0Co1.3333Y0.6667Ti0.0P3O12,15.348642,
Li0.1500Co0.0750Y0.0250Ti0.0000P0.1500O0.6000,Li3.0Co1.5Y0.5Ti0.0P3O12,15.348642,
Li0.1500Co0.0833Y0.0167Ti0.0000P0.1500O0.6000,Li3.0Co1.6667Y0.3333Ti0.0P3O12,15.348642,
Li0.1500Co0.0917Y0.0083Ti0.0000P0.1500O0.6000,Li3.0Co1.8333Y0.1667Ti0.0P3O12,15.224806,
Li0.1500Co0.1000Y0.0000Ti0.0000P0.1500O0.6000,Li3.0Co2.0Y0.0Ti0.0P3O12,15.21023,
Li0.0556Co0.0000Hf0.0000Ti0.1111P0.1667O0.6667,Li1.0Co0.0Hf0.0Ti2.0P3O12,7.7087817,
Li0.0642Co0.0000Hf0.0092Ti0.1009P0.1651O0.6605,Li1.1667Co0.0Hf0.1667Ti1.8333P3O12,7.7087817,
Li0.0642Co0.0092Hf0.0000Ti0.1009P0.1651O0.6605,Li1.1667Co0.1667Hf0.0Ti1.8333P3O12,7.7087817,
Li0.0727Co0.0000Hf0.0182Ti0.0909P0.1636O0.6545,Li1.3333Co0.0Hf0.3333Ti1.6667P3O12,7.7087817,
Li0.0727Co0.0182Hf0.0000Ti0.0909P0.1636O0.6545,Li1.3333Co0.3333Hf0.0Ti1.6667P3O12,7.7087817,
Li0.0811Co0.0000Hf0.0270Ti0.0811P0.1622O0.6486,Li1.5Co0.0Hf0.5Ti1.5P3O12,7.750805,
Li0.0811Co0.0090Hf0.0180Ti0.0811P0.1622O0.6486,Li1.5Co0.1667Hf0.3333Ti1.5P3O12,7.750805,0.0823986806646663
Li0.0811Co0.0180Hf0.0090Ti0.0811P0.1622O0.6486,Li1.5Co0.3333Hf0.1667Ti1.5P3O12,7.750805,0.19197549762092908
Li0.0811Co0.0270Hf0.0000Ti0.0811P0.1622O0.6486,Li1.5Co0.5Hf0.0Ti1.5P3O12,7.750805,
Li0.0893Co0.0000Hf0.0357Ti0.0714P0.1607O0.6429,Li1.6667Co0.0Hf0.6667Ti1.3333P3O12,8.1233835,
Li0.0893Co0.0089Hf0.0268Ti0.0714P0.1607O0.6429,Li1.6667Co0.1667Hf0.5Ti1.3333P3O12,8.129335,0.07380241988404884
Li0.0893Co0.0268Hf0.0089Ti0.0714P0.1607O0.6429,Li1.6667Co0.5Hf0.1667Ti1.3333P3O12,8.129335,0.2722935625163553
Li0.0893Co0.0357Hf0.0000Ti0.0714P0.1607O0.6429,Li1.6667Co0.6667Hf0.0Ti1.3333P3O12,8.129335,
Li0.0973Co0.0000Hf0.0442Ti0.0619P0.1593O0.6372,Li1.8333Co0.0Hf0.8333Ti1.1667P3O12,8.1233835,
Li0.0973Co0.0177Hf0.0265Ti0.0619P0.1593O0.6372,Li1.8333Co0.3333Hf0.5Ti1.1667P3O12,8.129335,0.13416450263317534
Li0.0973Co0.0265Hf0.0177Ti0.0619P0.1593O0.6372,Li1.8333Co0.5Hf0.3333Ti1.1667P3O12,8.129335,0.21652717013823886
Li0.0973Co0.0442Hf0.0000Ti0.0619P0.1593O0.6372,Li1.8333Co0.8333Hf0.0Ti1.1667P3O12,8.147218,
Li0.1053Co0.0000Hf0.0526Ti0.0526P0.1579O0.6316,Li2.0Co0.0Hf1.0Ti1.0P3O12,8.1233835,
Li0.1053Co0.0088Hf0.0439Ti0.0526P0.1579O0.6316,Li2.0Co0.1667Hf0.8333Ti1.0P3O12,8.1233835,0.06594319693924564
Li0.1053Co0.0175Hf0.0351Ti0.0526P0.1579O0.6316,Li2.0Co0.3333Hf0.6667Ti1.0P3O12,8.1233835,0.12632624788198962
Li0.1053Co0.0263Hf0.0263Ti0.0526P0.1579O0.6316,Li2.0Co0.5Hf0.5Ti1.0P3O12,8.129335,0.19555398930770843
Li0.1053Co0.0351Hf0.0175Ti0.0526P0.1579O0.6316,Li2.0Co0.6667Hf0.3333Ti1.0P3O12,8.129335,0.2867433171443671
Li0.1053Co0.0439Hf0.0088Ti0.0526P0.1579O0.6316,Li2.0Co0.8333Hf0.1667Ti1.0P3O12,8.147218,0.4253722544747663
Li0.1053Co0.0526Hf0.0000Ti0.0526P0.1579O0.6316,Li2.0Co1.0Hf0.0Ti1.0P3O12,8.147218,
Li0.1130Co0.0000Hf0.0609Ti0.0435P0.1565O0.6261,Li2.1667Co0.0Hf1.1667Ti0.8333P3O12,7.980404,
Li0.1130Co0.0087Hf0.0522Ti0.0435P0.1565O0.6261,Li2.1667Co0.1667Hf1.0Ti0.8333P3O12,8.1233835,0.007786959429443058
Li0.1130Co0.0261Hf0.0348Ti0.0435P0.1565O0.6261,Li2.1667Co0.5Hf0.6667Ti0.8333P3O12,8.1233835,0.024019487461662457
Li0.1130Co0.0348Hf0.0261Ti0.0435P0.1565O0.6261,Li2.1667Co0.6667Hf0.5Ti0.8333P3O12,8.129335,0.03181456151948373
Li0.1130Co0.0522Hf0.0087Ti0.0435P0.1565O0.6261,Li2.1667Co1.0Hf0.1667Ti0.8333P3O12,8.147218,0.09039637372830936
Li0.1130Co0.0609Hf0.0000Ti0.0435P0.1565O0.6261,Li2.1667Co1.1667Hf0.0Ti0.8333P3O12,8.147218,
Li0.1207Co0.0000Hf0.0690Ti0.0345P0.1552O0.6207,Li2.3333Co0.0Hf1.3333Ti0.6667P3O12,7.980404,
Li0.1207Co0.0172Hf0.0517Ti0.0345P0.1552O0.6207,Li2.3333Co0.3333Hf1.0Ti0.6667P3O12,8.1233835,0.011617000124192133
Li0.1207Co0.0259Hf0.0431Ti0.0345P0.1552O0.6207,Li2.3333Co0.5Hf0.8333Ti0.6667P3O12,8.1233835,0.02289950464934361
Li0.1207Co0.0431Hf0.0259Ti0.0345P0.1552O0.6207,Li2.3333Co0.8333Hf0.5Ti0.6667P3O12,8.147218,0.0356979910233917
Li0.1207Co0.0517Hf0.0172Ti0.0345P0.1552O0.6207,Li2.3333Co1.0Hf0.3333Ti0.6667P3O12,8.147218,0.12028233878849441
Li0.1207Co0.0690Hf0.0000Ti0.0345P0.1552O0.6207,Li2.3333Co1.3333Hf0.0Ti0.6667P3O12,8.147218,
Li0.1282Co0.0000Hf0.0769Ti0.0256P0.1538O0.6154,Li2.5Co0.0Hf1.5Ti0.5P3O12,7.980404,
Li0.1282Co0.0085Hf0.0684Ti0.0256P0.1538O0.6154,Li2.5Co0.1667Hf1.3333Ti0.5P3O12,7.980404,0.009654626760682277
Li0.1282Co0.0171Hf0.0598Ti0.0256P0.1538O0.6154,Li2.5Co0.3333Hf1.1667Ti0.5P3O12,7.980404,0.012995340133762
Li0.1282Co0.0256Hf0.0513Ti0.0256P0.1538O0.6154,Li2.5Co0.5Hf1.0Ti0.5P3O12,8.1233835,0.015435422587615929
Li0.1282Co0.0342Hf0.0427Ti0.0256P0.1538O0.6154,Li2.5Co0.6667Hf0.8333Ti0.5P3O12,8.1233835,0.026557033046644186
Li0.1282Co0.0427Hf0.0342Ti0.0256P0.1538O0.6154,Li2.5Co0.8333Hf0.6667Ti0.5P3O12,8.141266,0.031586479797233065
Li0.1282Co0.0513Hf0.0256Ti0.0256P0.1538O0.6154,Li2.5Co1.0Hf0.5Ti0.5P3O12,8.147218,0.14028324263344563
Li0.1282Co0.0598Hf0.0171Ti0.0256P0.1538O0.6154,Li2.5Co1.1667Hf0.3333Ti0.5P3O12,8.147218,0.12248987600164322
Li0.1282Co0.0684Hf0.0085Ti0.0256P0.1538O0.6154,Li2.5Co1.3333Hf0.1667Ti0.5P3O12,8.147218,0.09719580767418344
Li0.1282Co0.0769Hf0.0000Ti0.0256P0.1538O0.6154,Li2.5Co1.5Hf0.0Ti0.5P3O12,8.147218,
Li0.1356Co0.0000Hf0.0847Ti0.0169P0.1525O0.6102,Li2.6667Co0.0Hf1.6667Ti0.3333P3O12,7.980404,
Li0.1356Co0.0085Hf0.0763Ti0.0169P0.1525O0.6102,Li2.6667Co0.1667Hf1.5Ti0.3333P3O12,7.980404,0.011280939653326418
Li0.1356Co0.0254Hf0.0593Ti0.0169P0.1525O0.6102,Li2.6667Co0.5Hf1.1667Ti0.3333P3O12,7.980404,0.01758969589154236
Li0.1356Co0.0339Hf0.0508Ti0.0169P0.1525O0.6102,Li2.6667Co0.6667Hf1.0Ti0.3333P3O12,8.1233835,0.019872001670290306
Li0.1356Co0.0508Hf0.0339Ti0.0169P0.1525O0.6102,Li2.6667Co1.0Hf0.6667Ti0.3333P3O12,8.141266,0.1578805006850679
Li0.1356Co0.0593Hf0.0254Ti0.0169P0.1525O0.6102,Li2.6667Co1.1667Hf0.5Ti0.3333P3O12,8.147218,0.14517041187403673
Li0.1356Co0.0763Hf0.0085Ti0.0169P0.1525O0.6102,Li2.6667Co1.5Hf0.1667Ti0.3333P3O12,8.147218,0.10032194442517449
Li0.1356Co0.0847Hf0.0000Ti0.0169P0.1525O0.6102,Li2.6667Co1.6667Hf0.0Ti0.3333P3O12,8.147218,
Li0.1429Co0.0000Hf0.0924Ti0.0084P0.1513O0.6050,Li2.8333Co0.0Hf1.8333Ti0.1667P3O12,9.871589,
Li0.1429Co0.0168Hf0.0756Ti0.0084P0.1513O0.6050,Li2.8333Co0.3333Hf1.5Ti0.1667P3O12,11.711937,0.019166516263723923
Li0.1429Co0.0252Hf0.0672Ti0.0084P0.1513O0.6050,Li2.8333Co0.5Hf1.3333Ti0.1667P3O12,11.711937,0.022670949210867583
Li0.1429Co0.0420Hf0.0504Ti0.0084P0.1513O0.6050,Li2.8333Co0.8333Hf1.0Ti0.1667P3O12,11.872798,0.02851446647152378
Li0.1429Co0.0504Hf0.0420Ti0.0084P0.1513O0.6050,Li2.8333Co1.0Hf0.8333Ti0.1667P3O12,11.872798,0.16779605729792443
Li0.1429Co0.0672Hf0.0252Ti0.0084P0.1513O0.6050,Li2.8333Co1.3333Hf0.5Ti0.1667P3O12,11.87875,0.15119246370851483
Li0.1429Co0.0756Hf0.0168Ti0.0084P0.1513O0.6050,Li2.8333Co1.5Hf0.3333Ti0.1667P3O12,11.87875,0.1328963285175605
Li0.1429Co0.0924Hf0.0000Ti0.0084P0.1513O0.6050,Li2.8333Co1.8333Hf0.0Ti0.1667P3O12,11.87875,
Li0.1500Co0.0000Hf0.1000Ti0.0000P0.1500O0.6000,Li3.0Co0.0Hf2.0Ti0.0P3O12,13.217646,
Li0.1500Co0.0083Hf0.0917Ti0.0000P0.1500O0.6000,Li3.0Co0.1667Hf1.8333Ti0.0P3O12,13.217646,
Li0.1500Co0.0167Hf0.0833Ti0.0000P0.1500O0.6000,Li3.0Co0.3333Hf1.6667Ti0.0P3O12,15.057993,
Li0.1500Co0.0250Hf0.0750Ti0.0000P0.1500O0.6000,Li3.0Co0.5Hf1.5Ti0.0P3O12,15.057993,
Li0.1500Co0.0333Hf0.0667Ti0.0000P0.1500O0.6000,Li3.0Co0.6667Hf1.3333Ti0.0P3O12,15.057993,
Li0.1500Co0.0417Hf0.0583Ti0.0000P0.1500O0.6000,Li3.0Co0.8333Hf1.1667Ti0.0P3O12,15.218854,
Li0.1500Co0.0500Hf0.0500Ti0.0000P0.1500O0.6000,Li3.0Co1.0Hf1.0Ti0.0P3O12,15.218854,
Li0.1500Co0.0583Hf0.0417Ti0.0000P0.1500O0.6000,Li3.0Co1.1667Hf0.8333Ti0.0P3O12,15.218854,
Li0.1500Co0.0667Hf0.0333Ti0.0000P0.1500O0.6000,Li3.0Co1.3333Hf0.6667Ti0.0P3O12,15.218854,
Li0.1500Co0.0750Hf0.0250Ti0.0000P0.1500O0.6000,Li3.0Co1.5Hf0.5Ti0.0P3O12,15.224806,
Li0.1500Co0.0833Hf0.0167Ti0.0000P0.1500O0.6000,Li3.0Co1.6667Hf0.3333Ti0.0P3O12,15.224806,
Li0.1500Co0.0917Hf0.0083Ti0.0000P0.1500O0.6000,Li3.0Co1.8333Hf0.1667Ti0.0P3O12,15.224806,
Li0.1500Co0.1000Hf0.0000Ti0.0000P0.1500O0.6000,Li3.0Co2.0Hf0.0Ti0.0P3O12,15.21023,
Li0.0556Co0.0000Bi0.0000Ti0.1111P0.1667O0.6667,Li1.0Co0.0Bi0.0Ti2.0P3O12,7.7087817,
Li0.0642Co0.0000Bi0.0092Ti0.1009P0.1651O0.6605,Li1.1667Co0.0Bi0.1667Ti1.8333P3O12,7.7087817,
Li0.0642Co0.0092Bi0.0000Ti0.1009P0.1651O0.6605,Li1.1667Co0.1667Bi0.0Ti1.8333P3O12,7.7087817,
Li0.0727Co0.0000Bi0.0182Ti0.0909P0.1636O0.6545,Li1.3333Co0.0Bi0.3333Ti1.6667P3O12,7.7087817,
Li0.0727Co0.0182Bi0.0000Ti0.0909P0.1636O0.6545,Li1.3333Co0.3333Bi0.0Ti1.6667P3O12,7.7087817,
Li0.0811Co0.0000Bi0.0270Ti0.0811P0.1622O0.6486,Li1.5Co0.0Bi0.5Ti1.5P3O12,7.750805,
Li0.0811Co0.0090Bi0.0180Ti0.0811P0.1622O0.6486,Li1.5Co0.1667Bi0.3333Ti1.5P3O12,7.750805,0.003859420523558825
Li0.0811Co0.0180Bi0.0090Ti0.0811P0.1622O0.6486,Li1.5Co0.3333Bi0.1667Ti1.5P3O12,7.750805,0.005918765068323992
Li0.0811Co0.0270Bi0.0000Ti0.0811P0.1622O0.6486,Li1.5Co0.5Bi0.0Ti1.5P3O12,7.750805,
Li0.0893Co0.0000Bi0.0357Ti0.0714P0.1607O0.6429,Li1.6667Co0.0Bi0.6667Ti1.3333P3O12,8.129335,
Li0.0893Co0.0089Bi0.0268Ti0.0714P0.1607O0.6429,Li1.6667Co0.1667Bi0.5Ti1.3333P3O12,8.129335,0.0035368558757683873
Li0.0893Co0.0268Bi0.0089Ti0.0714P0.1607O0.6429,Li1.6667Co0.5Bi0.1667Ti1.3333P3O12,8.129335,0.007154102035673966
Li0.0893Co0.0357Bi0.0000Ti0.0714P0.1607O0.6429,Li1.6667Co0.6667Bi0.0Ti1.3333P3O12,8.129335,
Li0.0973Co0.0000Bi0.0442Ti0.0619P0.1593O0.6372,Li1.8333Co0.0Bi0.8333Ti1.1667P3O12,8.129335,
Li0.0973Co0.0177Bi0.0265Ti0.0619P0.1593O0.6372,Li1.8333Co0.3333Bi0.5Ti1.1667P3O12,8.129335,0.0049444123782107635
Li0.0973Co0.0265Bi0.0177Ti0.0619P0.1593O0.6372,Li1.8333Co0.5Bi0.3333Ti1.1667P3O12,8.129335,0.0061334314250611225
Li0.0973Co0.0442Bi0.0000Ti0.0619P0.1593O0.6372,Li1.8333Co0.8333Bi0.0Ti1.1667P3O12,8.147218,
Li0.1053Co0.0000Bi0.0526Ti0.0526P0.1579O0.6316,Li2.0Co0.0Bi1.0Ti1.0P3O12,8.129335,
Li0.1053Co0.0088Bi0.0439Ti0.0526P0.1579O0.6316,Li2.0Co0.1667Bi0.8333Ti1.0P3O12,8.129335,0.003118324306964458
Li0.1053Co0.0175Bi0.0351Ti0.0526P0.1579O0.6316,Li2.0Co0.3333Bi0.6667Ti1.0P3O12,8.129335,0.004663066489552084
Li0.1053Co0.0263Bi0.0263Ti0.0526P0.1579O0.6316,Li2.0Co0.5Bi0.5Ti1.0P3O12,8.129335,0.005697681965074626
Li0.1053Co0.0351Bi0.0175Ti0.0526P0.1579O0.6316,Li2.0Co0.6667Bi0.3333Ti1.0P3O12,8.129335,0.0068832015895535096
Li0.1053Co0.0439Bi0.0088Ti0.0526P0.1579O0.6316,Li2.0Co0.8333Bi0.1667Ti1.0P3O12,8.147218,0.008830374406777121
Li0.1053Co0.0526Bi0.0000Ti0.0526P0.1579O0.6316,Li2.0Co1.0Bi0.0Ti1.0P3O12,8.147218,
Li0.1130Co0.0000Bi0.0609Ti0.0435P0.1565O0.6261,Li2.1667Co0.0Bi1.1667Ti0.8333P3O12,8.129335,
Li0.1130Co0.0087Bi0.0522Ti0.0435P0.1565O0.6261,Li2.1667Co0.1667Bi1.0Ti0.8333P3O12,8.129335,0.03355401064699357
Li0.1130Co0.0261Bi0.0348Ti0.0435P0.1565O0.6261,Li2.1667Co0.5Bi0.6667Ti0.8333P3O12,8.129335,0.00020224050870273457