formula,original_formula,thermal_expansion,li ion conductivity
Li0.1053Mn0.0351Bi0.0175Ti0.0526P0.1579O0.6316,Li2.0Mn0.6667Bi0.3333Ti1.0P3O12,8.129335,0.0022905338486475415
Li0.1053Mn0.0439Bi0.0088Ti0.0526P0.1579O0.6316,Li2.0Mn0.8333Bi0.1667Ti1.0P3O12,7.1790795,0.0030521292995342292
Li0.1053Mn0.0526Bi0.0000Ti0.0526P0.1579O0.6316,Li2.0Mn1.0Bi0.0Ti1.0P3O12,7.5443654,
Li0.1130Mn0.0000Bi0.0609Ti0.0435P0.1565O0.6261,Li2.1667Mn0.0Bi1.1667Ti0.8333P3O12,8.129335,
Li0.1130Mn0.0087Bi0.0522Ti0.0435P0.1565O0.6261,Li2.1667Mn0.1667Bi1.0Ti0.8333P3O12,8.129335,0.012585671848009232
Li0.1130Mn0.0261Bi0.0348Ti0.0435P0.1565O0.6261,Li2.1667Mn0.5Bi0.6667Ti0.8333P3O12,8.129335,5.638213901102604e-05
Li0.1130Mn0.0348Bi0.0261Ti0.0435P0.1565O0.6261,Li2.1667Mn0.6667Bi0.5Ti0.8333P3O12,8.129335,5.823721726344801e-05
Li0.1130Mn0.0522Bi0.0087Ti0.0435P0.1565O0.6261,Li2.1667Mn1.0Bi0.1667Ti0.8333P3O12,7.5443654,0.10185139812881036
Li0.1130Mn0.0609Bi0.0000Ti0.0435P0.1565O0.6261,Li2.1667Mn1.1667Bi0.0Ti0.8333P3O12,7.5443654,
Li0.1207Mn0.0000Bi0.0690Ti0.0345P0.1552O0.6207,Li2.3333Mn0.0Bi1.3333Ti0.6667P3O12,8.129335,
Li0.1207Mn0.0172Bi0.0517Ti0.0345P0.1552O0.6207,Li2.3333Mn0.3333Bi1.0Ti0.6667P3O12,8.129335,0.014381510046579258
Li0.1207Mn0.0259Bi0.0431Ti0.0345P0.1552O0.6207,Li2.3333Mn0.5Bi0.8333Ti0.6667P3O12,8.129335,4.510784215024182e-05
Li0.1207Mn0.0431Bi0.0259Ti0.0345P0.1552O0.6207,Li2.3333Mn0.8333Bi0.5Ti0.6667P3O12,7.1790795,4.738387445956887e-05
Li0.1207Mn0.0517Bi0.0172Ti0.0345P0.1552O0.6207,Li2.3333Mn1.0Bi0.3333Ti0.6667P3O12,7.5443654,0.1347167853433095
Li0.1207Mn0.0690Bi0.0000Ti0.0345P0.1552O0.6207,Li2.3333Mn1.3333Bi0.0Ti0.6667P3O12,7.5443654,
Li0.1282Mn0.0000Bi0.0769Ti0.0256P0.1538O0.6154,Li2.5Mn0.0Bi1.5Ti0.5P3O12,8.129335,
Li0.1282Mn0.0085Bi0.0684Ti0.0256P0.1538O0.6154,Li2.5Mn0.1667Bi1.3333Ti0.5P3O12,8.129335,0.013804217295277296
Li0.1282Mn0.0171Bi0.0598Ti0.0256P0.1538O0.6154,Li2.5Mn0.3333Bi1.1667Ti0.5P3O12,8.129335,0.015479039054758564
Li0.1282Mn0.0256Bi0.0513Ti0.0256P0.1538O0.6154,Li2.5Mn0.5Bi1.0Ti0.5P3O12,8.129335,0.016651840793857172
Li0.1282Mn0.0342Bi0.0427Ti0.0256P0.1538O0.6154,Li2.5Mn0.6667Bi0.8333Ti0.5P3O12,8.129335,3.449044089216077e-05
Li0.1282Mn0.0427Bi0.0342Ti0.0256P0.1538O0.6154,Li2.5Mn0.8333Bi0.6667Ti0.5P3O12,7.1790795,3.519648163233974e-05
Li0.1282Mn0.0513Bi0.0256Ti0.0256P0.1538O0.6154,Li2.5Mn1.0Bi0.5Ti0.5P3O12,7.5443654,0.16756206041757293
Li0.1282Mn0.0598Bi0.0171Ti0.0256P0.1538O0.6154,Li2.5Mn1.1667Bi0.3333Ti0.5P3O12,7.5443654,0.14503292271603646
Li0.1282Mn0.0684Bi0.0085Ti0.0256P0.1538O0.6154,Li2.5Mn1.3333Bi0.1667Ti0.5P3O12,7.5443654,0.11537693747113055
Li0.1282Mn0.0769Bi0.0000Ti0.0256P0.1538O0.6154,Li2.5Mn1.5Bi0.0Ti0.5P3O12,7.5443654,
Li0.1356Mn0.0000Bi0.0847Ti0.0169P0.1525O0.6102,Li2.6667Mn0.0Bi1.6667Ti0.3333P3O12,8.129335,
Li0.1356Mn0.0085Bi0.0763Ti0.0169P0.1525O0.6102,Li2.6667Mn0.1667Bi1.5Ti0.3333P3O12,8.129335,0.015357525991352655
Li0.1356Mn0.0254Bi0.0593Ti0.0169P0.1525O0.6102,Li2.6667Mn0.5Bi1.1667Ti0.3333P3O12,8.129335,0.018487132121789363
Li0.1356Mn0.0339Bi0.0508Ti0.0169P0.1525O0.6102,Li2.6667Mn0.6667Bi1.0Ti0.3333P3O12,8.129335,0.01945785331070007
Li0.1356Mn0.0508Bi0.0339Ti0.0169P0.1525O0.6102,Li2.6667Mn1.0Bi0.6667Ti0.3333P3O12,7.5443654,0.20034898104694876
Li0.1356Mn0.0593Bi0.0254Ti0.0169P0.1525O0.6102,Li2.6667Mn1.1667Bi0.5Ti0.3333P3O12,7.5443654,0.1824451151910156
Li0.1356Mn0.0763Bi0.0085Ti0.0169P0.1525O0.6102,Li2.6667Mn1.5Bi0.1667Ti0.3333P3O12,7.5443654,0.12584891133349807
Li0.1356Mn0.0847Bi0.0000Ti0.0169P0.1525O0.6102,Li2.6667Mn1.6667Bi0.0Ti0.3333P3O12,7.480082,
Li0.1429Mn0.0000Bi0.0924Ti0.0084P0.1513O0.6050,Li2.8333Mn0.0Bi1.8333Ti0.1667P3O12,11.860868,
Li0.1429Mn0.0168Bi0.0756Ti0.0084P0.1513O0.6050,Li2.8333Mn0.3333Bi1.5Ti0.1667P3O12,11.860868,0.020102400861762314
Li0.1429Mn0.0252Bi0.0672Ti0.0084P0.1513O0.6050,Li2.8333Mn0.5Bi1.3333Ti0.1667P3O12,11.860868,0.021386261310640278
Li0.1429Mn0.0420Bi0.0504Ti0.0084P0.1513O0.6050,Li2.8333Mn0.8333Bi1.0Ti0.1667P3O12,9.057569,0.02514605030325691
Li0.1429Mn0.0504Bi0.0420Ti0.0084P0.1513O0.6050,Li2.8333Mn1.0Bi0.8333Ti0.1667P3O12,9.4228525,0.24442731548924954
Li0.1429Mn0.0672Bi0.0252Ti0.0084P0.1513O0.6050,Li2.8333Mn1.3333Bi0.5Ti0.1667P3O12,9.4228525,0.20619296038860008
Li0.1429Mn0.0756Bi0.0168Ti0.0084P0.1513O0.6050,Li2.8333Mn1.5Bi0.3333Ti0.1667P3O12,9.4228525,0.17890298959714998
Li0.1429Mn0.0924Bi0.0000Ti0.0084P0.1513O0.6050,Li2.8333Mn1.8333Bi0.0Ti0.1667P3O12,9.358569,
Li0.1500Mn0.0000Bi0.1000Ti0.0000P0.1500O0.6000,Li3.0Mn0.0Bi2.0Ti0.0P3O12,14.981435,
Li0.1500Mn0.0083Bi0.0917Ti0.0000P0.1500O0.6000,Li3.0Mn0.1667Bi1.8333Ti0.0P3O12,15.206924,
Li0.1500Mn0.0167Bi0.0833Ti0.0000P0.1500O0.6000,Li3.0Mn0.3333Bi1.6667Ti0.0P3O12,15.206924,
Li0.1500Mn0.0250Bi0.0750Ti0.0000P0.1500O0.6000,Li3.0Mn0.5Bi1.5Ti0.0P3O12,15.206924,
Li0.1500Mn0.0333Bi0.0667Ti0.0000P0.1500O0.6000,Li3.0Mn0.6667Bi1.3333Ti0.0P3O12,15.206924,
Li0.1500Mn0.0417Bi0.0583Ti0.0000P0.1500O0.6000,Li3.0Mn0.8333Bi1.1667Ti0.0P3O12,12.4036255,
Li0.1500Mn0.0500Bi0.0500Ti0.0000P0.1500O0.6000,Li3.0Mn1.0Bi1.0Ti0.0P3O12,12.76891,
Li0.1500Mn0.0583Bi0.0417Ti0.0000P0.1500O0.6000,Li3.0Mn1.1667Bi0.8333Ti0.0P3O12,12.76891,
Li0.1500Mn0.0667Bi0.0333Ti0.0000P0.1500O0.6000,Li3.0Mn1.3333Bi0.6667Ti0.0P3O12,12.76891,
Li0.1500Mn0.0750Bi0.0250Ti0.0000P0.1500O0.6000,Li3.0Mn1.5Bi0.5Ti0.0P3O12,12.76891,
Li0.1500Mn0.0833Bi0.0167Ti0.0000P0.1500O0.6000,Li3.0Mn1.6667Bi0.3333Ti0.0P3O12,12.704627,
Li0.1500Mn0.0917Bi0.0083Ti0.0000P0.1500O0.6000,Li3.0Mn1.8333Bi0.1667Ti0.0P3O12,12.704627,
Li0.1500Mn0.1000Bi0.0000Ti0.0000P0.1500O0.6000,Li3.0Mn2.0Bi0.0Ti0.0P3O12,12.704627,