formula,original_formula,thermal_expansion,li ion conductivity
Li0.1207Fe0.0259Al0.0431Ti0.0345P0.1552O0.6207,Li2.3333Fe0.5Al0.8333Ti0.6667P3O12,8.454553,0.2598439843975634
Li0.1207Fe0.0431Al0.0259Ti0.0345P0.1552O0.6207,Li2.3333Fe0.8333Al0.5Ti0.6667P3O12,8.377187,0.31451894410913994
Li0.1207Fe0.0517Al0.0172Ti0.0345P0.1552O0.6207,Li2.3333Fe1.0Al0.3333Ti0.6667P3O12,6.972733,0.6670438386005184
Li0.1207Fe0.0690Al0.0000Ti0.0345P0.1552O0.6207,Li2.3333Fe1.3333Al0.0Ti0.6667P3O12,7.040515,
Li0.1282Fe0.0000Al0.0769Ti0.0256P0.1538O0.6154,Li2.5Fe0.0Al1.5Ti0.5P3O12,9.286814,
Li0.1282Fe0.0085Al0.0684Ti0.0256P0.1538O0.6154,Li2.5Fe0.1667Al1.3333Ti0.5P3O12,9.286814,0.4079119026674102
Li0.1282Fe0.0171Al0.0598Ti0.0256P0.1538O0.6154,Li2.5Fe0.3333Al1.1667Ti0.5P3O12,9.286814,0.6156161123820647
Li0.1282Fe0.0256Al0.0513Ti0.0256P0.1538O0.6154,Li2.5Fe0.5Al1.0Ti0.5P3O12,8.454553,0.7377936991878776
Li0.1282Fe0.0342Al0.0427Ti0.0256P0.1538O0.6154,Li2.5Fe0.6667Al0.8333Ti0.5P3O12,8.454553,0.2620693683824482
Li0.1282Fe0.0427Al0.0342Ti0.0256P0.1538O0.6154,Li2.5Fe0.8333Al0.6667Ti0.5P3O12,8.377187,0.28352301595056967
Li0.1282Fe0.0513Al0.0256Ti0.0256P0.1538O0.6154,Li2.5Fe1.0Al0.5Ti0.5P3O12,8.377187,1.09228757125004
Li0.1282Fe0.0598Al0.0171Ti0.0256P0.1538O0.6154,Li2.5Fe1.1667Al0.3333Ti0.5P3O12,7.040515,0.7436101036032838
Li0.1282Fe0.0684Al0.0085Ti0.0256P0.1538O0.6154,Li2.5Fe1.3333Al0.1667Ti0.5P3O12,7.040515,0.3259086265070098
Li0.1282Fe0.0769Al0.0000Ti0.0256P0.1538O0.6154,Li2.5Fe1.5Al0.0Ti0.5P3O12,7.040515,
Li0.1356Fe0.0000Al0.0847Ti0.0169P0.1525O0.6102,Li2.6667Fe0.0Al1.6667Ti0.3333P3O12,9.286814,
Li0.1356Fe0.0085Al0.0763Ti0.0169P0.1525O0.6102,Li2.6667Fe0.1667Al1.5Ti0.3333P3O12,9.286814,0.47091434811265714
Li0.1356Fe0.0254Al0.0593Ti0.0169P0.1525O0.6102,Li2.6667Fe0.5Al1.1667Ti0.3333P3O12,8.20758,0.824926875835376
Li0.1356Fe0.0339Al0.0508Ti0.0169P0.1525O0.6102,Li2.6667Fe0.6667Al1.0Ti0.3333P3O12,8.454553,0.9254184590613855
Li0.1356Fe0.0508Al0.0339Ti0.0169P0.1525O0.6102,Li2.6667Fe1.0Al0.6667Ti0.3333P3O12,8.377187,1.5999532207906582
Li0.1356Fe0.0593Al0.0254Ti0.0169P0.1525O0.6102,Li2.6667Fe1.1667Al0.5Ti0.3333P3O12,8.444969,1.296652868078683
Li0.1356Fe0.0763Al0.0085Ti0.0169P0.1525O0.6102,Li2.6667Fe1.5Al0.1667Ti0.3333P3O12,7.040515,0.4043939121618211
Li0.1356Fe0.0847Al0.0000Ti0.0169P0.1525O0.6102,Li2.6667Fe1.6667Al0.0Ti0.3333P3O12,7.040515,
Li0.1429Fe0.0000Al0.0924Ti0.0084P0.1513O0.6050,Li2.8333Fe0.0Al1.8333Ti0.1667P3O12,13.018343,
Li0.1429Fe0.0168Al0.0756Ti0.0084P0.1513O0.6050,Li2.8333Fe0.3333Al1.5Ti0.1667P3O12,13.018343,0.8780246689502035
Li0.1429Fe0.0252Al0.0672Ti0.0084P0.1513O0.6050,Li2.8333Fe0.5Al1.3333Ti0.1667P3O12,11.939111,1.0170735307890955
Li0.1429Fe0.0420Al0.0504Ti0.0084P0.1513O0.6050,Li2.8333Fe0.8333Al1.0Ti0.1667P3O12,12.108715,1.1835500714979246
Li0.1429Fe0.0504Al0.0420Ti0.0084P0.1513O0.6050,Li2.8333Fe1.0Al0.8333Ti0.1667P3O12,12.108715,2.3964300787936432
Li0.1429Fe0.0672Al0.0252Ti0.0084P0.1513O0.6050,Li2.8333Fe1.3333Al0.5Ti0.1667P3O12,12.176497,1.7084953534615004
Li0.1429Fe0.0756Al0.0168Ti0.0084P0.1513O0.6050,Li2.8333Fe1.5Al0.3333Ti0.1667P3O12,10.772052,1.2007260476649773
Li0.1429Fe0.0924Al0.0000Ti0.0084P0.1513O0.6050,Li2.8333Fe1.8333Al0.0Ti0.1667P3O12,10.772052,
Li0.1500Fe0.0000Al0.1000Ti0.0000P0.1500O0.6000,Li3.0Fe0.0Al2.0Ti0.0P3O12,15.867943,
Li0.1500Fe0.0083Al0.0917Ti0.0000P0.1500O0.6000,Li3.0Fe0.1667Al1.8333Ti0.0P3O12,15.070612,
Li0.1500Fe0.0167Al0.0833Ti0.0000P0.1500O0.6000,Li3.0Fe0.3333Al1.6667Ti0.0P3O12,15.070612,
Li0.1500Fe0.0250Al0.0750Ti0.0000P0.1500O0.6000,Li3.0Fe0.5Al1.5Ti0.0P3O12,13.205323,
Li0.1500Fe0.0333Al0.0667Ti0.0000P0.1500O0.6000,Li3.0Fe0.6667Al1.3333Ti0.0P3O12,13.205323,
Li0.1500Fe0.0417Al0.0583Ti0.0000P0.1500O0.6000,Li3.0Fe0.8333Al1.1667Ti0.0P3O12,13.374928,
Li0.1500Fe0.0500Al0.0500Ti0.0000P0.1500O0.6000,Li3.0Fe1.0Al1.0Ti0.0P3O12,13.374928,
Li0.1500Fe0.0583Al0.0417Ti0.0000P0.1500O0.6000,Li3.0Fe1.1667Al0.8333Ti0.0P3O12,13.442711,
Li0.1500Fe0.0667Al0.0333Ti0.0000P0.1500O0.6000,Li3.0Fe1.3333Al0.6667Ti0.0P3O12,13.442711,
Li0.1500Fe0.0750Al0.0250Ti0.0000P0.1500O0.6000,Li3.0Fe1.5Al0.5Ti0.0P3O12,13.442711,
Li0.1500Fe0.0833Al0.0167Ti0.0000P0.1500O0.6000,Li3.0Fe1.6667Al0.3333Ti0.0P3O12,13.332053,
Li0.1500Fe0.0917Al0.0083Ti0.0000P0.1500O0.6000,Li3.0Fe1.8333Al0.1667Ti0.0P3O12,13.332053,
Li0.1500Fe0.1000Al0.0000Ti0.0000P0.1500O0.6000,Li3.0Fe2.0Al0.0Ti0.0P3O12,13.206304,
Li0.0556Fe0.0000As0.0000Ti0.1111P0.1667O0.6667,Li1.0Fe0.0As0.0Ti2.0P3O12,7.7087817,
Li0.0642Fe0.0000As0.0092Ti0.1009P0.1651O0.6605,Li1.1667Fe0.0As0.1667Ti1.8333P3O12,7.7087817,
Li0.0642Fe0.0092As0.0000Ti0.1009P0.1651O0.6605,Li1.1667Fe0.1667As0.0Ti1.8333P3O12,7.7087817,
Li0.0727Fe0.0000As0.0182Ti0.0909P0.1636O0.6545,Li1.3333Fe0.0As0.3333Ti1.6667P3O12,7.7087817,
Li0.0727Fe0.0182As0.0000Ti0.0909P0.1636O0.6545,Li1.3333Fe0.3333As0.0Ti1.6667P3O12,7.7087817,
Li0.0811Fe0.0000As0.0270Ti0.0811P0.1622O0.6486,Li1.5Fe0.0As0.5Ti1.5P3O12,7.750805,
Li0.0811Fe0.0090As0.0180Ti0.0811P0.1622O0.6486,Li1.5Fe0.1667As0.3333Ti1.5P3O12,7.750805,0.521932585805956
Li0.0811Fe0.0180As0.0090Ti0.0811P0.1622O0.6486,Li1.5Fe0.3333As0.1667Ti1.5P3O12,7.750805,0.8582635941505724
Li0.0811Fe0.0270As0.0000Ti0.0811P0.1622O0.6486,Li1.5Fe0.5As0.0Ti1.5P3O12,6.671572,
Li0.0893Fe0.0000As0.0357Ti0.0714P0.1607O0.6429,Li1.6667Fe0.0As0.6667Ti1.3333P3O12,8.129335,
Li0.0893Fe0.0089As0.0268Ti0.0714P0.1607O0.6429,Li1.6667Fe0.1667As0.5Ti1.3333P3O12,8.129335,0.4700297424430625
Li0.0893Fe0.0268As0.0089Ti0.0714P0.1607O0.6429,Li1.6667Fe0.5As0.1667Ti1.3333P3O12,7.0501,0.9724282790238427
Li0.0893Fe0.0357As0.0000Ti0.0714P0.1607O0.6429,Li1.6667Fe0.6667As0.0Ti1.3333P3O12,7.0501,
Li0.0973Fe0.0000As0.0442Ti0.0619P0.1593O0.6372,Li1.8333Fe0.0As0.8333Ti1.1667P3O12,8.129335,
Li0.0973Fe0.0177As0.0265Ti0.0619P0.1593O0.6372,Li1.8333Fe0.3333As0.5Ti1.1667P3O12,8.129335,0.6552398315520208
Li0.0973Fe0.0265As0.0177Ti0.0619P0.1593O0.6372,Li1.8333Fe0.5As0.3333Ti1.1667P3O12,7.0501,0.8041129715594577
Li0.0973Fe0.0442As0.0000Ti0.0619P0.1593O0.6372,Li1.8333Fe0.8333As0.0Ti1.1667P3O12,6.972733,
Li0.1053Fe0.0000As0.0526Ti0.0526P0.1579O0.6316,Li2.0Fe0.0As1.0Ti1.0P3O12,8.129335,
Li0.1053Fe0.0088As0.0439Ti0.0526P0.1579O0.6316,Li2.0Fe0.1667As0.8333Ti1.0P3O12,8.129335,0.42451050418997527
Li0.1053Fe0.0175As0.0351Ti0.0526P0.1579O0.6316,Li2.0Fe0.3333As0.6667Ti1.0P3O12,8.129335,0.6175332992132999
Li0.1053Fe0.0263As0.0263Ti0.0526P0.1579O0.6316,Li2.0Fe0.5As0.5Ti1.0P3O12,7.0501,0.7360250170534034
Li0.1053Fe0.0351As0.0175Ti0.0526P0.1579O0.6316,Li2.0Fe0.6667As0.3333Ti1.0P3O12,7.0501,0.8779894815053269
Li0.1053Fe0.0439As0.0088Ti0.0526P0.1579O0.6316,Li2.0Fe0.8333As0.1667Ti1.0P3O12,6.972733,1.1517904465981361
Li0.1053Fe0.0526As0.0000Ti0.0526P0.1579O0.6316,Li2.0Fe1.0As0.0Ti1.0P3O12,7.040515,
Li0.1130Fe0.0000As0.0609Ti0.0435P0.1565O0.6261,Li2.1667Fe0.0As1.1667Ti0.8333P3O12,8.129335,
Li0.1130Fe0.0087As0.0522Ti0.0435P0.1565O0.6261,Li2.1667Fe0.1667As1.0Ti0.8333P3O12,8.129335,0.07811261480956816
Li0.1130Fe0.0261As0.0348Ti0.0435P0.1565O0.6261,Li2.1667Fe0.5As0.6667Ti0.8333P3O12,7.0501,0.012150836329410327
Li0.1130Fe0.0348As0.0261Ti0.0435P0.1565O0.6261,Li2.1667Fe0.6667As0.5Ti0.8333P3O12,7.0501,0.014987650805743545
Li0.1130Fe0.0522As0.0087Ti0.0435P0.1565O0.6261,Li2.1667Fe1.0As0.1667Ti0.8333P3O12,6.972733,0.6212965757158054
Li0.1130Fe0.0609As0.0000Ti0.0435P0.1565O0.6261,Li2.1667Fe1.1667As0.0Ti0.8333P3O12,7.040515,
Li0.1207Fe0.0000As0.0690Ti0.0345P0.1552O0.6207,Li2.3333Fe0.0As1.3333Ti0.6667P3O12,8.129335,
Li0.1207Fe0.0172As0.0517Ti0.0345P0.1552O0.6207,Li2.3333Fe0.3333As1.0Ti0.6667P3O12,8.129335,0.1281847866835666
Li0.1207Fe0.0259As0.0431Ti0.0345P0.1552O0.6207,Li2.3333Fe0.5As0.8333Ti0.6667P3O12,7.0501,0.008429526591352278
Li0.1207Fe0.0431As0.0259Ti0.0345P0.1552O0.6207,Li2.3333Fe0.8333As0.5Ti0.6667P3O12,6.972733,0.012553184994270947
Li0.1207Fe0.0517As0.0172Ti0.0345P0.1552O0.6207,Li2.3333Fe1.0As0.3333Ti0.6667P3O12,6.972733,0.8487789922550378
Li0.1207Fe0.0690As0.0000Ti0.0345P0.1552O0.6207,Li2.3333Fe1.3333As0.0Ti0.6667P3O12,7.040515,
Li0.1282Fe0.0000As0.0769Ti0.0256P0.1538O0.6154,Li2.5Fe0.0As1.5Ti0.5P3O12,8.129335,
Li0.1282Fe0.0085As0.0684Ti0.0256P0.1538O0.6154,Li2.5Fe0.1667As1.3333Ti0.5P3O12,8.129335,0.09392664523983867
Li0.1282Fe0.0171As0.0598Ti0.0256P0.1538O0.6154,Li2.5Fe0.3333As1.1667Ti0.5P3O12,8.129335,0.1433488598302574
Li0.1282Fe0.0256As0.0513Ti0.0256P0.1538O0.6154,Li2.5Fe0.5As1.0Ti0.5P3O12,7.0501,0.1713366380632176
Li0.1282Fe0.0342As0.0427Ti0.0256P0.1538O0.6154,Li2.5Fe0.6667As0.8333Ti0.5P3O12,7.0501,0.006771199163013366
Li0.1282Fe0.0427As0.0342Ti0.0256P0.1538O0.6154,Li2.5Fe0.8333As0.6667Ti0.5P3O12,6.972733,0.00811262811012059
Li0.1282Fe0.0513As0.0256Ti0.0256P0.1538O0.6154,Li2.5Fe1.0As0.5Ti0.5P3O12,6.972733,0.9649847164781645
Li0.1282Fe0.0598As0.0171Ti0.0256P0.1538O0.6154,Li2.5Fe1.1667As0.3333Ti0.5P3O12,7.040515,0.9102712328249327
Li0.1282Fe0.0684As0.0085Ti0.0256P0.1538O0.6154,Li2.5Fe1.3333As0.1667Ti0.5P3O12,7.040515,0.6834917046127378
Li0.1282Fe0.0769As0.0000Ti0.0256P0.1538O0.6154,Li2.5Fe1.5As0.0Ti0.5P3O12,7.040515,
Li0.1356Fe0.0000As0.0847Ti0.0169P0.1525O0.6102,Li2.6667Fe0.0As1.6667Ti0.3333P3O12,8.129335,
Li0.1356Fe0.0085As0.0763Ti0.0169P0.1525O0.6102,Li2.6667Fe0.1667As1.5Ti0.3333P3O12,8.129335,0.11030359420288227
Li0.1356Fe0.0254As0.0593Ti0.0169P0.1525O0.6102,Li2.6667Fe0.5As1.1667Ti0.3333P3O12,7.0501,0.19741986200340486
Li0.1356Fe0.0339As0.0508Ti0.0169P0.1525O0.6102,Li2.6667Fe0.6667As1.0Ti0.3333P3O12,7.0501,0.21812911935235146
Li0.1356Fe0.0508As0.0339Ti0.0169P0.1525O0.6102,Li2.6667Fe1.0As0.6667Ti0.3333P3O12,6.972733,1.0985031003873151
Li0.1356Fe0.0593As0.0254Ti0.0169P0.1525O0.6102,Li2.6667Fe1.1667As0.5Ti0.3333P3O12,7.040515,1.0673110039138616
Li0.1356Fe0.0763As0.0085Ti0.0169P0.1525O0.6102,Li2.6667Fe1.5As0.1667Ti0.3333P3O12,7.040515,0.7712486111985453
Li0.1356Fe0.0847As0.0000Ti0.0169P0.1525O0.6102,Li2.6667Fe1.6667As0.0Ti0.3333P3O12,7.040515,
Li0.1429Fe0.0000As0.0924Ti0.0084P0.1513O0.6050,Li2.8333Fe0.0As1.8333Ti0.1667P3O12,11.860868,
Li0.1429Fe0.0168As0.0756Ti0.0084P0.1513O0.6050,Li2.8333Fe0.3333As1.5Ti0.1667P3O12,11.860868,0.2119752343143562
Li0.1429Fe0.0252As0.0672Ti0.0084P0.1513O0.6050,Li2.8333Fe0.5As1.3333Ti0.1667P3O12,10.781635,0.24698381010354273
Li0.1429Fe0.0420As0.0504Ti0.0084P0.1513O0.6050,Li2.8333Fe0.8333As1.0Ti0.1667P3O12,10.704269,0.2828371269202705
Li0.1429Fe0.0504As0.0420Ti0.0084P0.1513O0.6050,Li2.8333Fe1.0As0.8333Ti0.1667P3O12,10.704269,1.4019347473849268
Li0.1429Fe0.0672As0.0252Ti0.0084P0.1513O0.6050,Li2.8333Fe1.3333As0.5Ti0.1667P3O12,10.772052,1.3257352045166342
Li0.1429Fe0.0756As0.0168Ti0.0084P0.1513O0.6050,Li2.8333Fe1.5As0.3333Ti0.1667P3O12,10.772052,1.225959662740023
Li0.1429Fe0.0924As0.0000Ti0.0084P0.1513O0.6050,Li2.8333Fe1.8333As0.0Ti0.1667P3O12,10.772052,
Li0.1500Fe0.0000As0.1000Ti0.0000P0.1500O0.6000,Li3.0Fe0.0As2.0Ti0.0P3O12,15.206924,
Li0.1500Fe0.0083As0.0917Ti0.0000P0.1500O0.6000,Li3.0Fe0.1667As1.8333Ti0.0P3O12,15.206924,
Li0.1500Fe0.0167As0.0833Ti0.0000P0.1500O0.6000,Li3.0Fe0.3333As1.6667Ti0.0P3O12,15.206924,
Li0.1500Fe0.0250As0.0750Ti0.0000P0.1500O0.6000,Li3.0Fe0.5As1.5Ti0.0P3O12,13.341637,
Li0.1500Fe0.0333As0.0667Ti0.0000P0.1500O0.6000,Li3.0Fe0.6667As1.3333Ti0.0P3O12,13.341637,
Li0.1500Fe0.0417As0.0583Ti0.0000P0.1500O0.6000,Li3.0Fe0.8333As1.1667Ti0.0P3O12,13.264271,
Li0.1500Fe0.0500As0.0500Ti0.0000P0.1500O0.6000,Li3.0Fe1.0As1.0Ti0.0P3O12,13.264271,
Li0.1500Fe0.0583As0.0417Ti0.0000P0.1500O0.6000,Li3.0Fe1.1667As0.8333Ti0.0P3O12,13.332053,
Li0.1500Fe0.0667As0.0333Ti0.0000P0.1500O0.6000,Li3.0Fe1.3333As0.6667Ti0.0P3O12,13.332053,
Li0.1500Fe0.0750As0.0250Ti0.0000P0.1500O0.6000,Li3.0Fe1.5As0.5Ti0.0P3O12,13.332053,
Li0.1500Fe0.0833As0.0167Ti0.0000P0.1500O0.6000,Li3.0Fe1.6667As0.3333Ti0.0P3O12,13.332053,
Li0.1500Fe0.0917As0.0083Ti0.0000P0.1500O0.6000,Li3.0Fe1.8333As0.1667Ti0.0P3O12,13.332053,
Li0.1500Fe0.1000As0.0000Ti0.0000P0.1500O0.6000,Li3.0Fe2.0As0.0Ti0.0P3O12,13.206304,
Li0.0556Fe0.0000B0.0000Ti0.1111P0.1667O0.6667,Li1.0Fe0.0B0.0Ti2.0P3O12,7.7087817,
Li0.0642Fe0.0000B0.0092Ti0.1009P0.1651O0.6605,Li1.1667Fe0.0B0.1667Ti1.8333P3O12,7.7087817,
Li0.0642Fe0.0092B0.0000Ti0.1009P0.1651O0.6605,Li1.1667Fe0.1667B0.0Ti1.8333P3O12,7.7087817,
Li0.0727Fe0.0000B0.0182Ti0.0909P0.1636O0.6545,Li1.3333Fe0.0B0.3333Ti1.6667P3O12,7.7087817,
Li0.0727Fe0.0182B0.0000Ti0.0909P0.1636O0.6545,Li1.3333Fe0.3333B0.0Ti1.6667P3O12,7.7087817,
Li0.0811Fe0.0000B0.0270Ti0.0811P0.1622O0.6486,Li1.5Fe0.0B0.5Ti1.5P3O12,7.750805,
Li0.0811Fe0.0090B0.0180Ti0.0811P0.1622O0.6486,Li1.5Fe0.1667B0.3333Ti1.5P3O12,7.750805,0.9167097996638286
Li0.0811Fe0.0180B0.0090Ti0.0811P0.1622O0.6486,Li1.5Fe0.3333B0.1667Ti1.5P3O12,7.750805,1.6116894052375565
Li0.0811Fe0.0270B0.0000Ti0.0811P0.1622O0.6486,Li1.5Fe0.5B0.0Ti1.5P3O12,6.671572,
Li0.0893Fe0.0000B0.0357Ti0.0714P0.1607O0.6429,Li1.6667Fe0.0B0.6667Ti1.3333P3O12,8.129335,
Li0.0893Fe0.0089B0.0268Ti0.0714P0.1607O0.6429,Li1.6667Fe0.1667B0.5Ti1.3333P3O12,8.129335,0.8369186368207115
Li0.0893Fe0.0268B0.0089Ti0.0714P0.1607O0.6429,Li1.6667Fe0.5B0.1667Ti1.3333P3O12,7.0501,1.9459071104212706
Li0.0893Fe0.0357B0.0000Ti0.0714P0.1607O0.6429,Li1.6667Fe0.6667B0.0Ti1.3333P3O12,7.0501,
Li0.0973Fe0.0000B0.0442Ti0.0619P0.1593O0.6372,Li1.8333Fe0.0B0.8333Ti1.1667P3O12,8.129335,
Li0.0973Fe0.0177B0.0265Ti0.0619P0.1593O0.6372,Li1.8333Fe0.3333B0.5Ti1.1667P3O12,8.129335,1.2399401330327704
Li0.0973Fe0.0265B0.0177Ti0.0619P0.1593O0.6372,Li1.8333Fe0.5B0.3333Ti1.1667P3O12,7.0501,1.6494721946915487
Li0.0973Fe0.0442B0.0000Ti0.0619P0.1593O0.6372,Li1.8333Fe0.8333B0.0Ti1.1667P3O12,6.972733,
Li0.1053Fe0.0000B0.0526Ti0.0526P0.1579O0.6316,Li2.0Fe0.0B1.0Ti1.0P3O12,8.129335,
Li0.1053Fe0.0088B0.0439Ti0.0526P0.1579O0.6316,Li2.0Fe0.1667B0.8333Ti1.0P3O12,8.129335,0.7923828732048228
Li0.1053Fe0.0175B0.0351Ti0.0526P0.1579O0.6316,Li2.0Fe0.3333B0.6667Ti1.0P3O12,8.129335,1.1582148502123737
Li0.1053Fe0.0263B0.0263Ti0.0526P0.1579O0.6316,Li2.0Fe0.5B0.5Ti1.0P3O12,7.0501,1.4857208804118878
Li0.1053Fe0.0351B0.0175Ti0.0526P0.1579O0.6316,Li2.0Fe0.6667B0.3333Ti1.0P3O12,7.0501,1.917966277715444
Li0.1053Fe0.0439B0.0088Ti0.0526P0.1579O0.6316,Li2.0Fe0.8333B0.1667Ti1.0P3O12,6.972733,2.5591828693100225
Li0.1053Fe0.0526B0.0000Ti0.0526P0.1579O0.6316,Li2.0Fe1.0B0.0Ti1.0P3O12,7.040515,
Li0.1130Fe0.0000B0.0609Ti0.0435P0.1565O0.6261,Li2.1667Fe0.0B1.1667Ti0.8333P3O12,8.129335,
Li0.1130Fe0.0087B0.0522Ti0.0435P0.1565O0.6261,Li2.1667Fe0.1667B1.0Ti0.8333P3O12,8.129335,0.5461981502145159
Li0.1130Fe0.0261B0.0348Ti0.0435P0.1565O0.6261,Li2.1667Fe0.5B0.6667Ti0.8333P3O12,7.0501,0.9100373937550159
Li0.1130Fe0.0348B0.0261Ti0.0435P0.1565O0.6261,Li2.1667Fe0.6667B0.5Ti0.8333P3O12,7.0501,1.0499311987702025
Li0.1130Fe0.0522B0.0087Ti0.0435P0.1565O0.6261,Li2.1667Fe1.0B0.1667Ti0.8333P3O12,6.972733,2.6665768411281663
Li0.1130Fe0.0609B0.0000Ti0.0435P0.1565O0.6261,Li2.1667Fe1.1667B0.0Ti0.8333P3O12,7.040515,
Li0.1207Fe0.0000B0.0690Ti0.0345P0.1552O0.6207,Li2.3333Fe0.0B1.3333Ti0.6667P3O12,8.129335,
Li0.1207Fe0.0172B0.0517Ti0.0345P0.1552O0.6207,Li2.3333Fe0.3333B1.0Ti0.6667P3O12,8.129335,0.8850986574599349
Li0.1207Fe0.0259B0.0431Ti0.0345P0.1552O0.6207,Li2.3333Fe0.5B0.8333Ti0.6667P3O12,7.0501,0.8393512818188357
Li0.1207Fe0.0431B0.0259Ti0.0345P0.1552O0.6207,Li2.3333Fe0.8333B0.5Ti0.6667P3O12,6.972733,1.1014693049209547
Li0.1207Fe0.0517B0.0172Ti0.0345P0.1552O0.6207,Li2.3333Fe1.0B0.3333Ti0.6667P3O12,6.972733,4.463282622888431
Li0.1207Fe0.0690B0.0000Ti0.0345P0.1552O0.6207,Li2.3333Fe1.3333B0.0Ti0.6667P3O12,7.040515,
Li0.1282Fe0.0000B0.0769Ti0.0256P0.1538O0.6154,Li2.5Fe0.0B1.5Ti0.5P3O12,8.129335,
Li0.1282Fe0.0085B0.0684Ti0.0256P0.1538O0.6154,Li2.5Fe0.1667B1.3333Ti0.5P3O12,8.129335,0.6835067140872554
Li0.1282Fe0.0171B0.0598Ti0.0256P0.1538O0.6154,Li2.5Fe0.3333B1.1667Ti0.5P3O12,8.129335,0.9614666773613225
Li0.1282Fe0.0256B0.0513Ti0.0256P0.1538O0.6154,Li2.5Fe0.5B1.0Ti0.5P3O12,7.0501,1.1119691768037052
Li0.1282Fe0.0342B0.0427Ti0.0256P0.1538O0.6154,Li2.5Fe0.6667B0.8333Ti0.5P3O12,7.0501,0.8608452332605941
Li0.1282Fe0.0427B0.0342Ti0.0256P0.1538O0.6154,Li2.5Fe0.8333B0.6667Ti0.5P3O12,6.972733,0.9741487733529829
Li0.1282Fe0.0513B0.0256Ti0.0256P0.1538O0.6154,Li2.5Fe1.0B0.5Ti0.5P3O12,6.972733,5.996052268447191
Li0.1282Fe0.0598B0.0171Ti0.0256P0.1538O0.6154,Li2.5Fe1.1667B0.3333Ti0.5P3O12,7.040515,4.916430610527576
Li0.1282Fe0.0684B0.0085Ti0.0256P0.1538O0.6154,Li2.5Fe1.3333B0.1667Ti0.5P3O12,7.040515,3.278281319562526
Li0.1282Fe0.0769B0.0000Ti0.0256P0.1538O0.6154,Li2.5Fe1.5B0.0Ti0.5P3O12,7.040515,
Li0.1356Fe0.0000B0.0847Ti0.0169P0.1525O0.6102,Li2.6667Fe0.0B1.6667Ti0.3333P3O12,8.129335,
Li0.1356Fe0.0085B0.0763Ti0.0169P0.1525O0.6102,Li2.6667Fe0.1667B1.5Ti0.3333P3O12,8.129335,0.7933360983731288
Li0.1356Fe0.0254B0.0593Ti0.0169P0.1525O0.6102,Li2.6667Fe0.5B1.1667Ti0.3333P3O12,7.0501,1.2329595249427523
Li0.1356Fe0.0339B0.0508Ti0.0169P0.1525O0.6102,Li2.6667Fe0.6667B1.0Ti0.3333P3O12,7.0501,1.3656315384630824
Li0.1053B0.0175In0.0351Ti0.0526P0.1579O0.6316,Li2.0B0.3333In0.6667Ti1.0P3O12,8.690509,7.286072946752824
Li0.1053Al0.0351Ga0.0175Ti0.0526P0.1579O0.6316,Li2.0Al0.6667Ga0.3333Ti1.0P3O12,9.476832,7.253331541163268
Li0.1356Fe0.0763B0.0085Ti0.0169P0.1525O0.6102,Li2.6667Fe1.5B0.1667Ti0.3333P3O12,7.040515,3.981894855343241
Li0.1356Fe0.0847B0.0000Ti0.0169P0.1525O0.6102,Li2.6667Fe1.6667B0.0Ti0.3333P3O12,7.040515,
Li0.1429Fe0.0000B0.0924Ti0.0084P0.1513O0.6050,Li2.8333Fe0.0B1.8333Ti0.1667P3O12,11.860868,
Li0.1429Fe0.0168B0.0756Ti0.0084P0.1513O0.6050,Li2.8333Fe0.3333B1.5Ti0.1667P3O12,11.860868,1.3166572716296667
Li0.1429Fe0.0252B0.0672Ti0.0084P0.1513O0.6050,Li2.8333Fe0.5B1.3333Ti0.1667P3O12,10.781635,1.5082653849502785
Li0.1429Fe0.0420B0.0504Ti0.0084P0.1513O0.6050,Li2.8333Fe0.8333B1.0Ti0.1667P3O12,10.704269,1.7647584335123243
Li0.1356B0.0254Mn0.0593Ti0.0169P0.1525O0.6102,Li2.6667B0.5Mn1.1667Ti0.3333P3O12,7.5443654,7.243987996433994
Li0.1356Mn0.0593B0.0254Ti0.0169P0.1525O0.6102,Li2.6667Mn1.1667B0.5Ti0.3333P3O12,7.5443654,7.243987996433994
Li0.1356B0.0339Cr0.0508Ti0.0169P0.1525O0.6102,Li2.6667B0.6667Cr1.0Ti0.3333P3O12,7.845156,7.111326930351994
Li0.1429Fe0.0924B0.0000Ti0.0084P0.1513O0.6050,Li2.8333Fe1.8333B0.0Ti0.1667P3O12,10.772052,
Li0.1500Fe0.0000B0.1000Ti0.0000P0.1500O0.6000,Li3.0Fe0.0B2.0Ti0.0P3O12,15.206924,
Li0.1500Fe0.0083B0.0917Ti0.0000P0.1500O0.6000,Li3.0Fe0.1667B1.8333Ti0.0P3O12,15.206924,
Li0.1500Fe0.0167B0.0833Ti0.0000P0.1500O0.6000,Li3.0Fe0.3333B1.6667Ti0.0P3O12,15.206924,
Li0.1500Fe0.0250B0.0750Ti0.0000P0.1500O0.6000,Li3.0Fe0.5B1.5Ti0.0P3O12,13.341637,
Li0.1500Fe0.0333B0.0667Ti0.0000P0.1500O0.6000,Li3.0Fe0.6667B1.3333Ti0.0P3O12,13.341637,
Li0.1500Fe0.0417B0.0583Ti0.0000P0.1500O0.6000,Li3.0Fe0.8333B1.1667Ti0.0P3O12,13.264271,
Li0.1500Fe0.0500B0.0500Ti0.0000P0.1500O0.6000,Li3.0Fe1.0B1.0Ti0.0P3O12,13.264271,
Li0.1500Fe0.0583B0.0417Ti0.0000P0.1500O0.6000,Li3.0Fe1.1667B0.8333Ti0.0P3O12,13.332053,
Li0.1500Fe0.0667B0.0333Ti0.0000P0.1500O0.6000,Li3.0Fe1.3333B0.6667Ti0.0P3O12,13.332053,
Li0.1500Fe0.0750B0.0250Ti0.0000P0.1500O0.6000,Li3.0Fe1.5B0.5Ti0.0P3O12,13.332053,
Li0.1500Fe0.0833B0.0167Ti0.0000P0.1500O0.6000,Li3.0Fe1.6667B0.3333Ti0.0P3O12,13.332053,
Li0.1500Fe0.0917B0.0083Ti0.0000P0.1500O0.6000,Li3.0Fe1.8333B0.1667Ti0.0P3O12,13.332053,
Li0.1500Fe0.1000B0.0000Ti0.0000P0.1500O0.6000,Li3.0Fe2.0B0.0Ti0.0P3O12,13.206304,
Li0.0556Fe0.0000Co0.0000Ti0.1111P0.1667O0.6667,Li1.0Fe0.0Co0.0Ti2.0P3O12,7.7087817,
Li0.0642Fe0.0000Co0.0092Ti0.1009P0.1651O0.6605,Li1.1667Fe0.0Co0.1667Ti1.8333P3O12,7.7087817,
Li0.0642Fe0.0092Co0.0000Ti0.1009P0.1651O0.6605,Li1.1667Fe0.1667Co0.0Ti1.8333P3O12,7.7087817,
Li0.0727Fe0.0000Co0.0182Ti0.0909P0.1636O0.6545,Li1.3333Fe0.0Co0.3333Ti1.6667P3O12,7.7087817,
Li0.0727Fe0.0182Co0.0000Ti0.0909P0.1636O0.6545,Li1.3333Fe0.3333Co0.0Ti1.6667P3O12,7.7087817,
Li0.0811Fe0.0000Co0.0270Ti0.0811P0.1622O0.6486,Li1.5Fe0.0Co0.5Ti1.5P3O12,7.750805,
Li0.0811Fe0.0090Co0.0180Ti0.0811P0.1622O0.6486,Li1.5Fe0.1667Co0.3333Ti1.5P3O12,7.750805,0.31002564449348186
Li0.0811Fe0.0180Co0.0090Ti0.0811P0.1622O0.6486,Li1.5Fe0.3333Co0.1667Ti1.5P3O12,7.750805,0.5034830819943696
Li0.0811Fe0.0270Co0.0000Ti0.0811P0.1622O0.6486,Li1.5Fe0.5Co0.0Ti1.5P3O12,6.671572,
Li0.0893Fe0.0000Co0.0357Ti0.0714P0.1607O0.6429,Li1.6667Fe0.0Co0.6667Ti1.3333P3O12,8.129335,