formula,original_formula,thermal_expansion,li ion conductivity
Li0.1500Co0.0583Al0.0417Ti0.0000P0.1500O0.6000,Li3.0Co1.1667Al0.8333Ti0.0P3O12,15.335464,
Li0.1500Co0.0667Al0.0333Ti0.0000P0.1500O0.6000,Li3.0Co1.3333Al0.6667Ti0.0P3O12,15.335464,
Li0.1500Co0.0750Al0.0250Ti0.0000P0.1500O0.6000,Li3.0Co1.5Al0.5Ti0.0P3O12,15.335464,
Li0.1500Co0.0833Al0.0167Ti0.0000P0.1500O0.6000,Li3.0Co1.6667Al0.3333Ti0.0P3O12,15.224806,
Li0.1500Co0.0917Al0.0083Ti0.0000P0.1500O0.6000,Li3.0Co1.8333Al0.1667Ti0.0P3O12,15.224806,
Li0.1500Co0.1000Al0.0000Ti0.0000P0.1500O0.6000,Li3.0Co2.0Al0.0Ti0.0P3O12,15.21023,
Li0.0556Co0.0000As0.0000Ti0.1111P0.1667O0.6667,Li1.0Co0.0As0.0Ti2.0P3O12,7.7087817,
Li0.0642Co0.0000As0.0092Ti0.1009P0.1651O0.6605,Li1.1667Co0.0As0.1667Ti1.8333P3O12,7.7087817,
Li0.0642Co0.0092As0.0000Ti0.1009P0.1651O0.6605,Li1.1667Co0.1667As0.0Ti1.8333P3O12,7.7087817,
Li0.0727Co0.0000As0.0182Ti0.0909P0.1636O0.6545,Li1.3333Co0.0As0.3333Ti1.6667P3O12,7.7087817,
Li0.0727Co0.0182As0.0000Ti0.0909P0.1636O0.6545,Li1.3333Co0.3333As0.0Ti1.6667P3O12,7.7087817,
Li0.0811Co0.0000As0.0270Ti0.0811P0.1622O0.6486,Li1.5Co0.0As0.5Ti1.5P3O12,7.750805,
Li0.0811Co0.0090As0.0180Ti0.0811P0.1622O0.6486,Li1.5Co0.1667As0.3333Ti1.5P3O12,7.750805,0.5620903974167026
Li0.0811Co0.0180As0.0090Ti0.0811P0.1622O0.6486,Li1.5Co0.3333As0.1667Ti1.5P3O12,7.750805,0.985646642792871
Li0.0811Co0.0270As0.0000Ti0.0811P0.1622O0.6486,Li1.5Co0.5As0.0Ti1.5P3O12,7.750805,
Li0.0893Co0.0000As0.0357Ti0.0714P0.1607O0.6429,Li1.6667Co0.0As0.6667Ti1.3333P3O12,8.129335,
Li0.0893Co0.0089As0.0268Ti0.0714P0.1607O0.6429,Li1.6667Co0.1667As0.5Ti1.3333P3O12,8.129335,0.5086692002010772
Li0.0893Co0.0268As0.0089Ti0.0714P0.1607O0.6429,Li1.6667Co0.5As0.1667Ti1.3333P3O12,8.129335,1.2147628197587481
Li0.0893Co0.0357As0.0000Ti0.0714P0.1607O0.6429,Li1.6667Co0.6667As0.0Ti1.3333P3O12,8.129335,
Li0.0973Co0.0000As0.0442Ti0.0619P0.1593O0.6372,Li1.8333Co0.0As0.8333Ti1.1667P3O12,8.129335,
Li0.0973Co0.0177As0.0265Ti0.0619P0.1593O0.6372,Li1.8333Co0.3333As0.5Ti1.1667P3O12,8.129335,0.7545734512323784
Li0.0973Co0.0265As0.0177Ti0.0619P0.1593O0.6372,Li1.8333Co0.5As0.3333Ti1.1667P3O12,8.129335,1.010883570077952
Li0.0973Co0.0442As0.0000Ti0.0619P0.1593O0.6372,Li1.8333Co0.8333As0.0Ti1.1667P3O12,8.147218,
Li0.1053Co0.0000As0.0526Ti0.0526P0.1579O0.6316,Li2.0Co0.0As1.0Ti1.0P3O12,8.129335,
Li0.1053Co0.0088As0.0439Ti0.0526P0.1579O0.6316,Li2.0Co0.1667As0.8333Ti1.0P3O12,8.129335,0.45638520804035426
Li0.1053Co0.0175As0.0351Ti0.0526P0.1579O0.6316,Li2.0Co0.3333As0.6667Ti1.0P3O12,8.129335,0.7164450492850634
Li0.1053Co0.0263As0.0263Ti0.0526P0.1579O0.6316,Li2.0Co0.5As0.5Ti1.0P3O12,8.129335,0.9208619663267941
Li0.1053Co0.0351As0.0175Ti0.0526P0.1579O0.6316,Li2.0Co0.6667As0.3333Ti1.0P3O12,8.129335,1.149737276027954
Li0.1053Co0.0439As0.0088Ti0.0526P0.1579O0.6316,Li2.0Co0.8333As0.1667Ti1.0P3O12,8.147218,1.4779974371768507
Li0.1053Co0.0526As0.0000Ti0.0526P0.1579O0.6316,Li2.0Co1.0As0.0Ti1.0P3O12,8.147218,
Li0.1130Co0.0000As0.0609Ti0.0435P0.1565O0.6261,Li2.1667Co0.0As1.1667Ti0.8333P3O12,8.129335,
Li0.1130Co0.0087As0.0522Ti0.0435P0.1565O0.6261,Li2.1667Co0.1667As1.0Ti0.8333P3O12,8.129335,0.09060404727348116
Li0.1130Co0.0261As0.0348Ti0.0435P0.1565O0.6261,Li2.1667Co0.5As0.6667Ti0.8333P3O12,8.129335,0.029568091126292273
Li0.1130Co0.0348As0.0261Ti0.0435P0.1565O0.6261,Li2.1667Co0.6667As0.5Ti0.8333P3O12,8.129335,0.03695025296814937
Li0.1130Co0.0522As0.0087Ti0.0435P0.1565O0.6261,Li2.1667Co1.0As0.1667Ti0.8333P3O12,8.147218,0.5481639073785757
Li0.1130Co0.0609As0.0000Ti0.0435P0.1565O0.6261,Li2.1667Co1.1667As0.0Ti0.8333P3O12,8.147218,
Li0.1207Co0.0000As0.0690Ti0.0345P0.1552O0.6207,Li2.3333Co0.0As1.3333Ti0.6667P3O12,8.129335,
Li0.1207Co0.0172As0.0517Ti0.0345P0.1552O0.6207,Li2.3333Co0.3333As1.0Ti0.6667P3O12,8.129335,0.15525838310051218
Li0.1207Co0.0259As0.0431Ti0.0345P0.1552O0.6207,Li2.3333Co0.5As0.8333Ti0.6667P3O12,8.129335,0.022810421793278354
Li0.1207Co0.0431As0.0259Ti0.0345P0.1552O0.6207,Li2.3333Co0.8333As0.5Ti0.6667P3O12,8.147218,0.03297202048559903
Li0.1207Co0.0517As0.0172Ti0.0345P0.1552O0.6207,Li2.3333Co1.0As0.3333Ti0.6667P3O12,8.147218,0.7199825621113808
Li0.1207Co0.0690As0.0000Ti0.0345P0.1552O0.6207,Li2.3333Co1.3333As0.0Ti0.6667P3O12,8.147218,
Li0.1282Co0.0000As0.0769Ti0.0256P0.1538O0.6154,Li2.5Co0.0As1.5Ti0.5P3O12,8.129335,
Li0.1282Co0.0085As0.0684Ti0.0256P0.1538O0.6154,Li2.5Co0.1667As1.3333Ti0.5P3O12,8.129335,0.10522993714752142
Li0.1282Co0.0171As0.0598Ti0.0256P0.1538O0.6154,Li2.5Co0.3333As1.1667Ti0.5P3O12,8.129335,0.16877561687095846
Li0.1282Co0.0256As0.0513Ti0.0256P0.1538O0.6154,Li2.5Co0.5As1.0Ti0.5P3O12,8.129335,0.21553688647904587
Li0.1282Co0.0342As0.0427Ti0.0256P0.1538O0.6154,Li2.5Co0.6667As0.8333Ti0.5P3O12,8.129335,0.019501570169348878
Li0.1282Co0.0427As0.0342Ti0.0256P0.1538O0.6154,Li2.5Co0.8333As0.6667Ti0.5P3O12,8.147218,0.022463337644401678
Li0.1282Co0.0513As0.0256Ti0.0256P0.1538O0.6154,Li2.5Co1.0As0.5Ti0.5P3O12,8.147218,0.8245470077766321
Li0.1282Co0.0598As0.0171Ti0.0256P0.1538O0.6154,Li2.5Co1.1667As0.3333Ti0.5P3O12,8.147218,0.7807193025144664
Li0.1282Co0.0684As0.0085Ti0.0256P0.1538O0.6154,Li2.5Co1.3333As0.1667Ti0.5P3O12,8.147218,0.62461215013876
Li0.1282Co0.0769As0.0000Ti0.0256P0.1538O0.6154,Li2.5Co1.5As0.0Ti0.5P3O12,8.147218,
Li0.1356Co0.0000As0.0847Ti0.0169P0.1525O0.6102,Li2.6667Co0.0As1.6667Ti0.3333P3O12,8.129335,
Li0.1356Co0.0085As0.0763Ti0.0169P0.1525O0.6102,Li2.6667Co0.1667As1.5Ti0.3333P3O12,8.129335,0.12077648165363372
Li0.1356Co0.0254As0.0593Ti0.0169P0.1525O0.6102,Li2.6667Co0.5As1.1667Ti0.3333P3O12,8.129335,0.23962893136337343
Li0.1356Co0.0339As0.0508Ti0.0169P0.1525O0.6102,Li2.6667Co0.6667As1.0Ti0.3333P3O12,8.129335,0.2762559228845739
Li0.1356Co0.0508As0.0339Ti0.0169P0.1525O0.6102,Li2.6667Co1.0As0.6667Ti0.3333P3O12,8.147218,0.9569170659697708
Li0.1356Co0.0593As0.0254Ti0.0169P0.1525O0.6102,Li2.6667Co1.1667As0.5Ti0.3333P3O12,8.147218,0.9404929231530169
Li0.1356Co0.0763As0.0085Ti0.0169P0.1525O0.6102,Li2.6667Co1.5As0.1667Ti0.3333P3O12,8.147218,0.6968333378792999
Li0.1356Co0.0847As0.0000Ti0.0169P0.1525O0.6102,Li2.6667Co1.6667As0.0Ti0.3333P3O12,8.147218,
Li0.1429Co0.0000As0.0924Ti0.0084P0.1513O0.6050,Li2.8333Co0.0As1.8333Ti0.1667P3O12,11.860868,
Li0.1429Co0.0168As0.0756Ti0.0084P0.1513O0.6050,Li2.8333Co0.3333As1.5Ti0.1667P3O12,11.860868,0.23170664986322742
Li0.1429Co0.0252As0.0672Ti0.0084P0.1513O0.6050,Li2.8333Co0.5As1.3333Ti0.1667P3O12,11.860868,0.28562454593178366
Li0.1429Co0.0420As0.0504Ti0.0084P0.1513O0.6050,Li2.8333Co0.8333As1.0Ti0.1667P3O12,11.87875,0.3424921044087359
Li0.1429Co0.0504As0.0420Ti0.0084P0.1513O0.6050,Li2.8333Co1.0As0.8333Ti0.1667P3O12,11.87875,1.2453594310599971
Li0.1429Co0.0672As0.0252Ti0.0084P0.1513O0.6050,Li2.8333Co1.3333As0.5Ti0.1667P3O12,11.87875,1.1827472610412624
Li0.1429Co0.0756As0.0168Ti0.0084P0.1513O0.6050,Li2.8333Co1.5As0.3333Ti0.1667P3O12,11.87875,1.0999163632175635
Li0.1429Co0.0924As0.0000Ti0.0084P0.1513O0.6050,Li2.8333Co1.8333As0.0Ti0.1667P3O12,11.87875,
Li0.1500Co0.0000As0.1000Ti0.0000P0.1500O0.6000,Li3.0Co0.0As2.0Ti0.0P3O12,15.206924,
Li0.1500Co0.0083As0.0917Ti0.0000P0.1500O0.6000,Li3.0Co0.1667As1.8333Ti0.0P3O12,15.206924,
Li0.1500Co0.0167As0.0833Ti0.0000P0.1500O0.6000,Li3.0Co0.3333As1.6667Ti0.0P3O12,15.206924,
Li0.1500Co0.0250As0.0750Ti0.0000P0.1500O0.6000,Li3.0Co0.5As1.5Ti0.0P3O12,15.206924,
Li0.1500Co0.0333As0.0667Ti0.0000P0.1500O0.6000,Li3.0Co0.6667As1.3333Ti0.0P3O12,15.206924,
Li0.1500Co0.0417As0.0583Ti0.0000P0.1500O0.6000,Li3.0Co0.8333As1.1667Ti0.0P3O12,15.224806,
Li0.1500Co0.0500As0.0500Ti0.0000P0.1500O0.6000,Li3.0Co1.0As1.0Ti0.0P3O12,15.224806,
Li0.1500Co0.0583As0.0417Ti0.0000P0.1500O0.6000,Li3.0Co1.1667As0.8333Ti0.0P3O12,15.224806,
Li0.1500Co0.0667As0.0333Ti0.0000P0.1500O0.6000,Li3.0Co1.3333As0.6667Ti0.0P3O12,15.224806,
Li0.1500Co0.0750As0.0250Ti0.0000P0.1500O0.6000,Li3.0Co1.5As0.5Ti0.0P3O12,15.224806,
Li0.1500Co0.0833As0.0167Ti0.0000P0.1500O0.6000,Li3.0Co1.6667As0.3333Ti0.0P3O12,15.224806,
Li0.1500Co0.0917As0.0083Ti0.0000P0.1500O0.6000,Li3.0Co1.8333As0.1667Ti0.0P3O12,15.224806,
Li0.1500Co0.1000As0.0000Ti0.0000P0.1500O0.6000,Li3.0Co2.0As0.0Ti0.0P3O12,15.21023,
Li0.0556Co0.0000B0.0000Ti0.1111P0.1667O0.6667,Li1.0Co0.0B0.0Ti2.0P3O12,7.7087817,
Li0.0642Co0.0000B0.0092Ti0.1009P0.1651O0.6605,Li1.1667Co0.0B0.1667Ti1.8333P3O12,7.7087817,
Li0.0642Co0.0092B0.0000Ti0.1009P0.1651O0.6605,Li1.1667Co0.1667B0.0Ti1.8333P3O12,7.7087817,
Li0.0727Co0.0000B0.0182Ti0.0909P0.1636O0.6545,Li1.3333Co0.0B0.3333Ti1.6667P3O12,7.7087817,
Li0.0727Co0.0182B0.0000Ti0.0909P0.1636O0.6545,Li1.3333Co0.3333B0.0Ti1.6667P3O12,7.7087817,
Li0.0811Co0.0000B0.0270Ti0.0811P0.1622O0.6486,Li1.5Co0.0B0.5Ti1.5P3O12,7.750805,
Li0.0811Co0.0090B0.0180Ti0.0811P0.1622O0.6486,Li1.5Co0.1667B0.3333Ti1.5P3O12,7.750805,0.9217723783492338
Li0.0811Co0.0180B0.0090Ti0.0811P0.1622O0.6486,Li1.5Co0.3333B0.1667Ti1.5P3O12,7.750805,1.679126249760955
Li0.0811Co0.0270B0.0000Ti0.0811P0.1622O0.6486,Li1.5Co0.5B0.0Ti1.5P3O12,7.750805,
Li0.0893Co0.0000B0.0357Ti0.0714P0.1607O0.6429,Li1.6667Co0.0B0.6667Ti1.3333P3O12,8.129335,
Li0.0893Co0.0089B0.0268Ti0.0714P0.1607O0.6429,Li1.6667Co0.1667B0.5Ti1.3333P3O12,8.129335,0.8447918316753088
Li0.0893Co0.0268B0.0089Ti0.0714P0.1607O0.6429,Li1.6667Co0.5B0.1667Ti1.3333P3O12,8.129335,2.217992840764368
Li0.0893Co0.0357B0.0000Ti0.0714P0.1607O0.6429,Li1.6667Co0.6667B0.0Ti1.3333P3O12,8.129335,
Li0.0973Co0.0000B0.0442Ti0.0619P0.1593O0.6372,Li1.8333Co0.0B0.8333Ti1.1667P3O12,8.129335,
Li0.0973Co0.0177B0.0265Ti0.0619P0.1593O0.6372,Li1.8333Co0.3333B0.5Ti1.1667P3O12,8.129335,1.3222826546053466
Li0.0973Co0.0265B0.0177Ti0.0619P0.1593O0.6372,Li1.8333Co0.5B0.3333Ti1.1667P3O12,8.129335,1.8858585669627277
Li0.0973Co0.0442B0.0000Ti0.0619P0.1593O0.6372,Li1.8333Co0.8333B0.0Ti1.1667P3O12,8.147218,
Li0.1053Co0.0000B0.0526Ti0.0526P0.1579O0.6316,Li2.0Co0.0B1.0Ti1.0P3O12,8.129335,
Li0.1053Co0.0088B0.0439Ti0.0526P0.1579O0.6316,Li2.0Co0.1667B0.8333Ti1.0P3O12,8.129335,0.7769853083351195
Li0.1053Co0.0175B0.0351Ti0.0526P0.1579O0.6316,Li2.0Co0.3333B0.6667Ti1.0P3O12,8.129335,1.2632416725640627
Li0.1053Co0.0263B0.0263Ti0.0526P0.1579O0.6316,Li2.0Co0.5B0.5Ti1.0P3O12,8.129335,1.7593017998515945
Li0.1053Co0.0351B0.0175Ti0.0526P0.1579O0.6316,Li2.0Co0.6667B0.3333Ti1.0P3O12,8.129335,2.315745245147095
Li0.1053Co0.0439B0.0088Ti0.0526P0.1579O0.6316,Li2.0Co0.8333B0.1667Ti1.0P3O12,8.147218,3.0930790255414897
Li0.1053Co0.0526B0.0000Ti0.0526P0.1579O0.6316,Li2.0Co1.0B0.0Ti1.0P3O12,8.147218,
Li0.1130Co0.0000B0.0609Ti0.0435P0.1565O0.6261,Li2.1667Co0.0B1.1667Ti0.8333P3O12,8.129335,
Li0.1130Co0.0087B0.0522Ti0.0435P0.1565O0.6261,Li2.1667Co0.1667B1.0Ti0.8333P3O12,8.129335,0.6195030473185252
Li0.1130Co0.0261B0.0348Ti0.0435P0.1565O0.6261,Li2.1667Co0.5B0.6667Ti0.8333P3O12,8.129335,1.0118963118514577
Li0.1130Co0.0348B0.0261Ti0.0435P0.1565O0.6261,Li2.1667Co0.6667B0.5Ti0.8333P3O12,8.129335,1.2542817665721506
Li0.1130Co0.0522B0.0087Ti0.0435P0.1565O0.6261,Li2.1667Co1.0B0.1667Ti0.8333P3O12,8.147218,2.1952938108368603
Li0.1130Co0.0609B0.0000Ti0.0435P0.1565O0.6261,Li2.1667Co1.1667B0.0Ti0.8333P3O12,8.147218,
Li0.1207Co0.0000B0.0690Ti0.0345P0.1552O0.6207,Li2.3333Co0.0B1.3333Ti0.6667P3O12,8.129335,
Li0.1207Co0.0172B0.0517Ti0.0345P0.1552O0.6207,Li2.3333Co0.3333B1.0Ti0.6667P3O12,8.129335,1.0813714168929842
Li0.1207Co0.0259B0.0431Ti0.0345P0.1552O0.6207,Li2.3333Co0.5B0.8333Ti0.6667P3O12,8.129335,0.9405967070841116
Li0.1207Co0.0431B0.0259Ti0.0345P0.1552O0.6207,Li2.3333Co0.8333B0.5Ti0.6667P3O12,8.147218,1.3700927966442875
Li0.1207Co0.0517B0.0172Ti0.0345P0.1552O0.6207,Li2.3333Co1.0B0.3333Ti0.6667P3O12,8.147218,3.7891517108800987
Li0.1207Co0.0690B0.0000Ti0.0345P0.1552O0.6207,Li2.3333Co1.3333B0.0Ti0.6667P3O12,8.147218,
Li0.1282Co0.0000B0.0769Ti0.0256P0.1538O0.6154,Li2.5Co0.0B1.5Ti0.5P3O12,8.129335,
Li0.1282Co0.0085B0.0684Ti0.0256P0.1538O0.6154,Li2.5Co0.1667B1.3333Ti0.5P3O12,8.129335,0.7294073143207647
Li0.1282Co0.0171B0.0598Ti0.0256P0.1538O0.6154,Li2.5Co0.3333B1.1667Ti0.5P3O12,8.129335,1.1377009690450663
Li0.1282Co0.0256B0.0513Ti0.0256P0.1538O0.6154,Li2.5Co0.5B1.0Ti0.5P3O12,8.129335,1.3914013038847877
Li0.1282Co0.0342B0.0427Ti0.0256P0.1538O0.6154,Li2.5Co0.6667B0.8333Ti0.5P3O12,8.129335,1.0475568546745129
Li0.1282Co0.0427B0.0342Ti0.0256P0.1538O0.6154,Li2.5Co0.8333B0.6667Ti0.5P3O12,8.147218,1.2184288424549763
Li0.1282Co0.0513B0.0256Ti0.0256P0.1538O0.6154,Li2.5Co1.0B0.5Ti0.5P3O12,8.147218,5.252908754876673
Li0.1282Co0.0598B0.0171Ti0.0256P0.1538O0.6154,Li2.5Co1.1667B0.3333Ti0.5P3O12,8.147218,4.267951347088609
Li0.1282Co0.0684B0.0085Ti0.0256P0.1538O0.6154,Li2.5Co1.3333B0.1667Ti0.5P3O12,8.147218,2.73615203875196
Li0.1282Co0.0769B0.0000Ti0.0256P0.1538O0.6154,Li2.5Co1.5B0.0Ti0.5P3O12,8.147218,
Li0.1356Co0.0000B0.0847Ti0.0169P0.1525O0.6102,Li2.6667Co0.0B1.6667Ti0.3333P3O12,8.129335,
Li0.1356Co0.0085B0.0763Ti0.0169P0.1525O0.6102,Li2.6667Co0.1667B1.5Ti0.3333P3O12,8.129335,0.8110272453784164
Li0.1356Co0.0254B0.0593Ti0.0169P0.1525O0.6102,Li2.6667Co0.5B1.1667Ti0.3333P3O12,8.129335,1.5037405080790387
Li0.1356Co0.0339B0.0508Ti0.0169P0.1525O0.6102,Li2.6667Co0.6667B1.0Ti0.3333P3O12,8.129335,1.7341489209158871
Li0.1053B0.0351Y0.0175Ti0.0526P0.1579O0.6316,Li2.0B0.6667Y0.3333Ti1.0P3O12,8.253172,7.528521586667043
Li0.1356Co0.0593B0.0254Ti0.0169P0.1525O0.6102,Li2.6667Co1.1667B0.5Ti0.3333P3O12,8.147218,6.159386119652187
Li0.1356Co0.0763B0.0085Ti0.0169P0.1525O0.6102,Li2.6667Co1.5B0.1667Ti0.3333P3O12,8.147218,3.3711061431734612
Li0.1356Co0.0847B0.0000Ti0.0169P0.1525O0.6102,Li2.6667Co1.6667B0.0Ti0.3333P3O12,8.147218,
Li0.1429Co0.0000B0.0924Ti0.0084P0.1513O0.6050,Li2.8333Co0.0B1.8333Ti0.1667P3O12,11.860868,
Li0.1429Co0.0168B0.0756Ti0.0084P0.1513O0.6050,Li2.8333Co0.3333B1.5Ti0.1667P3O12,11.860868,1.4232977244124496
Li0.1429Co0.0252B0.0672Ti0.0084P0.1513O0.6050,Li2.8333Co0.5B1.3333Ti0.1667P3O12,11.860868,1.7192712861104391
Li0.1429Co0.0420B0.0504Ti0.0084P0.1513O0.6050,Li2.8333Co0.8333B1.0Ti0.1667P3O12,11.87875,2.155372413281336
Li0.1053B0.0263Sc0.0263Ti0.0526P0.1579O0.6316,Li2.0B0.5Sc0.5Ti1.0P3O12,6.484139,7.4012103929448285
Li0.0811B0.0090As0.0180Ti0.0811P0.1622O0.6486,Li1.5B0.1667As0.3333Ti1.5P3O12,7.750805,7.357406132891266
Li0.1429Co0.0756B0.0168Ti0.0084P0.1513O0.6050,Li2.8333Co1.5B0.3333Ti0.1667P3O12,11.87875,6.672313553416224
Li0.1429Co0.0924B0.0000Ti0.0084P0.1513O0.6050,Li2.8333Co1.8333B0.0Ti0.1667P3O12,11.87875,
Li0.1500Co0.0000B0.1000Ti0.0000P0.1500O0.6000,Li3.0Co0.0B2.0Ti0.0P3O12,15.206924,
Li0.1500Co0.0083B0.0917Ti0.0000P0.1500O0.6000,Li3.0Co0.1667B1.8333Ti0.0P3O12,15.206924,
Li0.1500Co0.0167B0.0833Ti0.0000P0.1500O0.6000,Li3.0Co0.3333B1.6667Ti0.0P3O12,15.206924,
Li0.1500Co0.0250B0.0750Ti0.0000P0.1500O0.6000,Li3.0Co0.5B1.5Ti0.0P3O12,15.206924,
Li0.1500Co0.0333B0.0667Ti0.0000P0.1500O0.6000,Li3.0Co0.6667B1.3333Ti0.0P3O12,15.206924,
Li0.1500Co0.0417B0.0583Ti0.0000P0.1500O0.6000,Li3.0Co0.8333B1.1667Ti0.0P3O12,15.224806,
Li0.1500Co0.0500B0.0500Ti0.0000P0.1500O0.6000,Li3.0Co1.0B1.0Ti0.0P3O12,15.224806,
Li0.1500Co0.0583B0.0417Ti0.0000P0.1500O0.6000,Li3.0Co1.1667B0.8333Ti0.0P3O12,15.224806,
Li0.1500Co0.0667B0.0333Ti0.0000P0.1500O0.6000,Li3.0Co1.3333B0.6667Ti0.0P3O12,15.224806,
Li0.1500Co0.0750B0.0250Ti0.0000P0.1500O0.6000,Li3.0Co1.5B0.5Ti0.0P3O12,15.224806,
Li0.1500Co0.0833B0.0167Ti0.0000P0.1500O0.6000,Li3.0Co1.6667B0.3333Ti0.0P3O12,15.224806,
Li0.1500Co0.0917B0.0083Ti0.0000P0.1500O0.6000,Li3.0Co1.8333B0.1667Ti0.0P3O12,15.224806,
Li0.1500Co0.1000B0.0000Ti0.0000P0.1500O0.6000,Li3.0Co2.0B0.0Ti0.0P3O12,15.21023,
Li0.0556Co0.0000Ti0.1111P0.1667O0.6667,Li1.0Co0.0Co0.0Ti2.0P3O12,7.7087817,
Li0.0642Co0.0092Ti0.1009P0.1651O0.6605,Li1.1667Co0.0Co0.1667Ti1.8333P3O12,7.7087817,0.2081246938468108
Li0.0642Co0.0092Ti0.1009P0.1651O0.6605,Li1.1667Co0.1667Co0.0Ti1.8333P3O12,7.7087817,
Li0.0727Co0.0182Ti0.0909P0.1636O0.6545,Li1.3333Co0.0Co0.3333Ti1.6667P3O12,7.7087817,0.34024476274409426
Li0.0727Co0.0182Ti0.0909P0.1636O0.6545,Li1.3333Co0.3333Co0.0Ti1.6667P3O12,7.7087817,
Li0.0811Co0.0270Ti0.0811P0.1622O0.6486,Li1.5Co0.0Co0.5Ti1.5P3O12,7.750805,0.46253254686785844
Li0.0811Co0.0270Ti0.0811P0.1622O0.6486,Li1.5Co0.1667Co0.3333Ti1.5P3O12,7.750805,0.3354957160288002
Li0.0811Co0.0270Ti0.0811P0.1622O0.6486,Li1.5Co0.3333Co0.1667Ti1.5P3O12,7.750805,0.2039980903671676
Li0.0811Co0.0270Ti0.0811P0.1622O0.6486,Li1.5Co0.5Co0.0Ti1.5P3O12,7.750805,
Li0.0893Co0.0357Ti0.0714P0.1607O0.6429,Li1.6667Co0.0Co0.6667Ti1.3333P3O12,8.129335,0.5710906449047974
Li0.0893Co0.0357Ti0.0714P0.1607O0.6429,Li1.6667Co0.1667Co0.5Ti1.3333P3O12,8.129335,0.4555166417259891
Li0.0893Co0.0357Ti0.0714P0.1607O0.6429,Li1.6667Co0.5Co0.1667Ti1.3333P3O12,8.129335,0.20185871858941926
Li0.0893Co0.0357Ti0.0714P0.1607O0.6429,Li1.6667Co0.6667Co0.0Ti1.3333P3O12,8.129335,
Li0.0973Co0.0442Ti0.0619P0.1593O0.6372,Li1.8333Co0.0Co0.8333Ti1.1667P3O12,8.147218,0.6604003442841435
Li0.0973Co0.0442Ti0.0619P0.1593O0.6372,Li1.8333Co0.3333Co0.5Ti1.1667P3O12,8.147218,0.4471176952878673
Li0.0973Co0.0442Ti0.0619P0.1593O0.6372,Li1.8333Co0.5Co0.3333Ti1.1667P3O12,8.147218,0.32651303064657583
Li0.0973Co0.0442Ti0.0619P0.1593O0.6372,Li1.8333Co0.8333Co0.0Ti1.1667P3O12,8.147218,
Li0.1053Co0.0526Ti0.0526P0.1579O0.6316,Li2.0Co0.0Co1.0Ti1.0P3O12,8.147218,0.0004590807431541756
Li0.1053Co0.0526Ti0.0526P0.1579O0.6316,Li2.0Co0.1667Co0.8333Ti1.0P3O12,8.147218,0.6496975648846066
Li0.1053Co0.0526Ti0.0526P0.1579O0.6316,Li2.0Co0.3333Co0.6667Ti1.0P3O12,8.147218,0.5514847632563992
Li0.1053Co0.0526Ti0.0526P0.1579O0.6316,Li2.0Co0.5Co0.5Ti1.0P3O12,8.147218,0.4400915247170675
Li0.1053Co0.0526Ti0.0526P0.1579O0.6316,Li2.0Co0.6667Co0.3333Ti1.0P3O12,8.147218,0.32121257948961274
Li0.1053Co0.0526Ti0.0526P0.1579O0.6316,Li2.0Co0.8333Co0.1667Ti1.0P3O12,8.147218,0.19945184865485915
Li0.1053Co0.0526Ti0.0526P0.1579O0.6316,Li2.0Co1.0Co0.0Ti1.0P3O12,8.147218,
Li0.1130Co0.0609Ti0.0435P0.1565O0.6261,Li2.1667Co0.0Co1.1667Ti0.8333P3O12,8.147218,0.05121698450598733
Li0.1130Co0.0609Ti0.0435P0.1565O0.6261,Li2.1667Co0.1667Co1.0Ti0.8333P3O12,8.147218,0.050961813362143345
Li0.1130Co0.0609Ti0.0435P0.1565O0.6261,Li2.1667Co0.5Co0.6667Ti0.8333P3O12,8.147218,0.39829070931097665
Li0.1130Co0.0609Ti0.0435P0.1565O0.6261,Li2.1667Co0.6667Co0.5Ti0.8333P3O12,8.147218,0.36191384221296424
Li0.1130Co0.0609Ti0.0435P0.1565O0.6261,Li2.1667Co1.0Co0.1667Ti0.8333P3O12,8.147218,0.19762241855458804
Li0.1130Co0.0609Ti0.0435P0.1565O0.6261,Li2.1667Co1.1667Co0.0Ti0.8333P3O12,8.147218,
Li0.1207Co0.0690Ti0.0345P0.1552O0.6207,Li2.3333Co0.0Co1.3333Ti0.6667P3O12,8.147218,0.04041082948546401
Li0.1207Co0.0690Ti0.0345P0.1552O0.6207,Li2.3333Co0.3333Co1.0Ti0.6667P3O12,8.147218,0.03992517551352988
Li0.1207Co0.0690Ti0.0345P0.1552O0.6207,Li2.3333Co0.5Co0.8333Ti0.6667P3O12,8.147218,0.4393697297268761
Li0.1207Co0.0690Ti0.0345P0.1552O0.6207,Li2.3333Co0.8333Co0.5Ti0.6667P3O12,8.147218,0.38463531132286943
Li0.1207Co0.0690Ti0.0345P0.1552O0.6207,Li2.3333Co1.0Co0.3333Ti0.6667P3O12,8.147218,0.3288570169467332
Li0.1207Co0.0690Ti0.0345P0.1552O0.6207,Li2.3333Co1.3333Co0.0Ti0.6667P3O12,8.147218,
Li0.1282Co0.0769Ti0.0256P0.1538O0.6154,Li2.5Co0.0Co1.5Ti0.5P3O12,8.147218,0.029532790798895387
Li0.1282Co0.0769Ti0.0256P0.1538O0.6154,Li2.5Co0.1667Co1.3333Ti0.5P3O12,8.147218,0.02937342817349026
Li0.1282Co0.0769Ti0.0256P0.1538O0.6154,Li2.5Co0.3333Co1.1667Ti0.5P3O12,8.147218,0.029181200124877783
Li0.1282Co0.0769Ti0.0256P0.1538O0.6154,Li2.5Co0.5Co1.0Ti0.5P3O12,8.147218,0.0290295669319127
Li0.1282Co0.0769Ti0.0256P0.1538O0.6154,Li2.5Co0.6667Co0.8333Ti0.5P3O12,8.147218,0.468207160209194
Li0.1282Co0.0769Ti0.0256P0.1538O0.6154,Li2.5Co0.8333Co0.6667Ti0.5P3O12,8.147218,0.44637849541090785
Li0.1282Co0.0769Ti0.0256P0.1538O0.6154,Li2.5Co1.0Co0.5Ti0.5P3O12,8.147218,0.4104763728055939
Li0.1282Co0.0769Ti0.0256P0.1538O0.6154,Li2.5Co1.1667Co0.3333Ti0.5P3O12,8.147218,0.35759521183329707
Li0.1282Co0.0769Ti0.0256P0.1538O0.6154,Li2.5Co1.3333Co0.1667Ti0.5P3O12,8.147218,0.23255511062685888
Li0.1282Co0.0769Ti0.0256P0.1538O0.6154,Li2.5Co1.5Co0.0Ti0.5P3O12,8.147218,
Li0.1356Co0.0847Ti0.0169P0.1525O0.6102,Li2.6667Co0.0Co1.6667Ti0.3333P3O12,8.147218,0.01877259384231782
Li0.1356Co0.0847Ti0.0169P0.1525O0.6102,Li2.6667Co0.1667Co1.5Ti0.3333P3O12,8.147218,0.018671212553745282