formula,original_formula,thermal_expansion,li ion conductivity
Li0.1130Co0.0348Bi0.0261Ti0.0435P0.1565O0.6261,Li2.1667Co0.6667Bi0.5Ti0.8333P3O12,8.129335,0.0002115981819869164
Li0.1130Co0.0522Bi0.0087Ti0.0435P0.1565O0.6261,Li2.1667Co1.0Bi0.1667Ti0.8333P3O12,8.147218,0.0843017447329103
Li0.1130Co0.0609Bi0.0000Ti0.0435P0.1565O0.6261,Li2.1667Co1.1667Bi0.0Ti0.8333P3O12,8.147218,
Li0.1207Co0.0000Bi0.0690Ti0.0345P0.1552O0.6207,Li2.3333Co0.0Bi1.3333Ti0.6667P3O12,8.129335,
Li0.1207Co0.0172Bi0.0517Ti0.0345P0.1552O0.6207,Li2.3333Co0.3333Bi1.0Ti0.6667P3O12,8.129335,0.043156763327608406
Li0.1207Co0.0259Bi0.0431Ti0.0345P0.1552O0.6207,Li2.3333Co0.5Bi0.8333Ti0.6667P3O12,8.129335,0.00016906995769966828
Li0.1207Co0.0431Bi0.0259Ti0.0345P0.1552O0.6207,Li2.3333Co0.8333Bi0.5Ti0.6667P3O12,8.147218,0.00016632435540494994
Li0.1207Co0.0517Bi0.0172Ti0.0345P0.1552O0.6207,Li2.3333Co1.0Bi0.3333Ti0.6667P3O12,8.147218,0.11144766659765348
Li0.1207Co0.0690Bi0.0000Ti0.0345P0.1552O0.6207,Li2.3333Co1.3333Bi0.0Ti0.6667P3O12,8.147218,
Li0.1282Co0.0000Bi0.0769Ti0.0256P0.1538O0.6154,Li2.5Co0.0Bi1.5Ti0.5P3O12,8.129335,
Li0.1282Co0.0085Bi0.0684Ti0.0256P0.1538O0.6154,Li2.5Co0.1667Bi1.3333Ti0.5P3O12,8.129335,0.03787660527153284
Li0.1282Co0.0171Bi0.0598Ti0.0256P0.1538O0.6154,Li2.5Co0.3333Bi1.1667Ti0.5P3O12,8.129335,0.046069603871823156
Li0.1282Co0.0256Bi0.0513Ti0.0256P0.1538O0.6154,Li2.5Co0.5Bi1.0Ti0.5P3O12,8.129335,0.05265681902183469
Li0.1282Co0.0342Bi0.0427Ti0.0256P0.1538O0.6154,Li2.5Co0.6667Bi0.8333Ti0.5P3O12,8.129335,0.00013601472569448544
Li0.1282Co0.0427Bi0.0342Ti0.0256P0.1538O0.6154,Li2.5Co0.8333Bi0.6667Ti0.5P3O12,8.147218,0.00013091146771984833
Li0.1282Co0.0513Bi0.0256Ti0.0256P0.1538O0.6154,Li2.5Co1.0Bi0.5Ti0.5P3O12,8.147218,0.13833333206164738
Li0.1282Co0.0598Bi0.0171Ti0.0256P0.1538O0.6154,Li2.5Co1.1667Bi0.3333Ti0.5P3O12,8.147218,0.11841232841481093
Li0.1282Co0.0684Bi0.0085Ti0.0256P0.1538O0.6154,Li2.5Co1.3333Bi0.1667Ti0.5P3O12,8.147218,0.0937074459292673
Li0.1282Co0.0769Bi0.0000Ti0.0256P0.1538O0.6154,Li2.5Co1.5Bi0.0Ti0.5P3O12,8.147218,
Li0.1356Co0.0000Bi0.0847Ti0.0169P0.1525O0.6102,Li2.6667Co0.0Bi1.6667Ti0.3333P3O12,8.129335,
Li0.1356Co0.0085Bi0.0763Ti0.0169P0.1525O0.6102,Li2.6667Co0.1667Bi1.5Ti0.3333P3O12,8.129335,0.04099014758534738
Li0.1356Co0.0254Bi0.0593Ti0.0169P0.1525O0.6102,Li2.6667Co0.5Bi1.1667Ti0.3333P3O12,8.129335,0.05450997024973426
Li0.1356Co0.0339Bi0.0508Ti0.0169P0.1525O0.6102,Li2.6667Co0.6667Bi1.0Ti0.3333P3O12,8.129335,0.060293908425216605
Li0.1356Co0.0508Bi0.0339Ti0.0169P0.1525O0.6102,Li2.6667Co1.0Bi0.6667Ti0.3333P3O12,8.147218,0.16668404302675785
Li0.1356Co0.0593Bi0.0254Ti0.0169P0.1525O0.6102,Li2.6667Co1.1667Bi0.5Ti0.3333P3O12,8.147218,0.14889444799589827
Li0.1356Co0.0763Bi0.0085Ti0.0169P0.1525O0.6102,Li2.6667Co1.5Bi0.1667Ti0.3333P3O12,8.147218,0.10045625114483142
Li0.1356Co0.0847Bi0.0000Ti0.0169P0.1525O0.6102,Li2.6667Co1.6667Bi0.0Ti0.3333P3O12,8.147218,
Li0.1429Co0.0000Bi0.0924Ti0.0084P0.1513O0.6050,Li2.8333Co0.0Bi1.8333Ti0.1667P3O12,11.860868,
Li0.1429Co0.0168Bi0.0756Ti0.0084P0.1513O0.6050,Li2.8333Co0.3333Bi1.5Ti0.1667P3O12,11.860868,0.05233289932450483
Li0.1429Co0.0252Bi0.0672Ti0.0084P0.1513O0.6050,Li2.8333Co0.5Bi1.3333Ti0.1667P3O12,11.860868,0.0613389610931013
Li0.1429Co0.0420Bi0.0504Ti0.0084P0.1513O0.6050,Li2.8333Co0.8333Bi1.0Ti0.1667P3O12,11.87875,0.07774742874611834
Li0.1429Co0.0504Bi0.0420Ti0.0084P0.1513O0.6050,Li2.8333Co1.0Bi0.8333Ti0.1667P3O12,11.87875,0.19706967438030626
Li0.1429Co0.0672Bi0.0252Ti0.0084P0.1513O0.6050,Li2.8333Co1.3333Bi0.5Ti0.1667P3O12,11.87875,0.16443738321886245
Li0.1429Co0.0756Bi0.0168Ti0.0084P0.1513O0.6050,Li2.8333Co1.5Bi0.3333Ti0.1667P3O12,11.87875,0.14332847927466952
Li0.1429Co0.0924Bi0.0000Ti0.0084P0.1513O0.6050,Li2.8333Co1.8333Bi0.0Ti0.1667P3O12,11.87875,
Li0.1500Co0.0000Bi0.1000Ti0.0000P0.1500O0.6000,Li3.0Co0.0Bi2.0Ti0.0P3O12,14.981435,
Li0.1500Co0.0083Bi0.0917Ti0.0000P0.1500O0.6000,Li3.0Co0.1667Bi1.8333Ti0.0P3O12,15.206924,
Li0.1500Co0.0167Bi0.0833Ti0.0000P0.1500O0.6000,Li3.0Co0.3333Bi1.6667Ti0.0P3O12,15.206924,
Li0.1500Co0.0250Bi0.0750Ti0.0000P0.1500O0.6000,Li3.0Co0.5Bi1.5Ti0.0P3O12,15.206924,
Li0.1500Co0.0333Bi0.0667Ti0.0000P0.1500O0.6000,Li3.0Co0.6667Bi1.3333Ti0.0P3O12,15.206924,
Li0.1500Co0.0417Bi0.0583Ti0.0000P0.1500O0.6000,Li3.0Co0.8333Bi1.1667Ti0.0P3O12,15.224806,
Li0.1500Co0.0500Bi0.0500Ti0.0000P0.1500O0.6000,Li3.0Co1.0Bi1.0Ti0.0P3O12,15.224806,
Li0.1500Co0.0583Bi0.0417Ti0.0000P0.1500O0.6000,Li3.0Co1.1667Bi0.8333Ti0.0P3O12,15.224806,
Li0.1500Co0.0667Bi0.0333Ti0.0000P0.1500O0.6000,Li3.0Co1.3333Bi0.6667Ti0.0P3O12,15.224806,
Li0.1500Co0.0750Bi0.0250Ti0.0000P0.1500O0.6000,Li3.0Co1.5Bi0.5Ti0.0P3O12,15.224806,
Li0.1500Co0.0833Bi0.0167Ti0.0000P0.1500O0.6000,Li3.0Co1.6667Bi0.3333Ti0.0P3O12,15.224806,
Li0.1500Co0.0917Bi0.0083Ti0.0000P0.1500O0.6000,Li3.0Co1.8333Bi0.1667Ti0.0P3O12,15.224806,
Li0.1500Co0.1000Bi0.0000Ti0.0000P0.1500O0.6000,Li3.0Co2.0Bi0.0Ti0.0P3O12,15.21023,
Li0.0556Cr0.0000Al0.0000Ti0.1111P0.1667O0.6667,Li1.0Cr0.0Al0.0Ti2.0P3O12,7.7087817,
Li0.0642Cr0.0000Al0.0092Ti0.1009P0.1651O0.6605,Li1.1667Cr0.0Al0.1667Ti1.8333P3O12,7.7087817,
Li0.0642Cr0.0092Al0.0000Ti0.1009P0.1651O0.6605,Li1.1667Cr0.1667Al0.0Ti1.8333P3O12,7.7087817,
Li0.0727Cr0.0000Al0.0182Ti0.0909P0.1636O0.6545,Li1.3333Cr0.0Al0.3333Ti1.6667P3O12,9.113234,
Li0.0727Cr0.0182Al0.0000Ti0.0909P0.1636O0.6545,Li1.3333Cr0.3333Al0.0Ti1.6667P3O12,7.7087817,
Li0.0811Cr0.0000Al0.0270Ti0.0811P0.1622O0.6486,Li1.5Cr0.0Al0.5Ti1.5P3O12,9.155256,
Li0.0811Cr0.0090Al0.0180Ti0.0811P0.1622O0.6486,Li1.5Cr0.1667Al0.3333Ti1.5P3O12,9.155256,0.3707666115999293
Li0.0811Cr0.0180Al0.0090Ti0.0811P0.1622O0.6486,Li1.5Cr0.3333Al0.1667Ti1.5P3O12,7.750805,0.6257141697477197
Li0.0811Cr0.0270Al0.0000Ti0.0811P0.1622O0.6486,Li1.5Cr0.5Al0.0Ti1.5P3O12,7.750805,
Li0.0893Cr0.0000Al0.0357Ti0.0714P0.1607O0.6429,Li1.6667Cr0.0Al0.6667Ti1.3333P3O12,9.533785,
Li0.0893Cr0.0089Al0.0268Ti0.0714P0.1607O0.6429,Li1.6667Cr0.1667Al0.5Ti1.3333P3O12,9.533785,0.35579173888685467
Li0.0893Cr0.0268Al0.0089Ti0.0714P0.1607O0.6429,Li1.6667Cr0.5Al0.1667Ti1.3333P3O12,8.129335,0.8334867035412734
Li0.0893Cr0.0357Al0.0000Ti0.0714P0.1607O0.6429,Li1.6667Cr0.6667Al0.0Ti1.3333P3O12,8.129335,
Li0.0973Cr0.0000Al0.0442Ti0.0619P0.1593O0.6372,Li1.8333Cr0.0Al0.8333Ti1.1667P3O12,9.533785,
Li0.0973Cr0.0177Al0.0265Ti0.0619P0.1593O0.6372,Li1.8333Cr0.3333Al0.5Ti1.1667P3O12,9.533785,0.5980781770974125
Li0.0973Cr0.0265Al0.0177Ti0.0619P0.1593O0.6372,Li1.8333Cr0.5Al0.3333Ti1.1667P3O12,9.533785,0.8015030013961238
Li0.0973Cr0.0442Al0.0000Ti0.0619P0.1593O0.6372,Li1.8333Cr0.8333Al0.0Ti1.1667P3O12,7.845156,
Li0.1053Cr0.0000Al0.0526Ti0.0526P0.1579O0.6316,Li2.0Cr0.0Al1.0Ti1.0P3O12,9.533785,
Li0.1053Cr0.0088Al0.0439Ti0.0526P0.1579O0.6316,Li2.0Cr0.1667Al0.8333Ti1.0P3O12,9.533785,0.3415002288091228
Li0.1053Cr0.0175Al0.0351Ti0.0526P0.1579O0.6316,Li2.0Cr0.3333Al0.6667Ti1.0P3O12,9.533785,0.597633123477246
Li0.1053Cr0.0263Al0.0263Ti0.0526P0.1579O0.6316,Li2.0Cr0.5Al0.5Ti1.0P3O12,9.533785,0.8089257830686012
Li0.1053Cr0.0351Al0.0175Ti0.0526P0.1579O0.6316,Li2.0Cr0.6667Al0.3333Ti1.0P3O12,8.129335,0.9755514595113156
Li0.1053Cr0.0439Al0.0088Ti0.0526P0.1579O0.6316,Li2.0Cr0.8333Al0.1667Ti1.0P3O12,7.845156,1.1801645579313238
Li0.1053Cr0.0526Al0.0000Ti0.0526P0.1579O0.6316,Li2.0Cr1.0Al0.0Ti1.0P3O12,7.845156,
Li0.1130Cr0.0000Al0.0609Ti0.0435P0.1565O0.6261,Li2.1667Cr0.0Al1.1667Ti0.8333P3O12,9.286814,
Li0.1130Cr0.0087Al0.0522Ti0.0435P0.1565O0.6261,Li2.1667Cr0.1667Al1.0Ti0.8333P3O12,9.533785,0.16281627593983417
Li0.1130Cr0.0261Al0.0348Ti0.0435P0.1565O0.6261,Li2.1667Cr0.5Al0.6667Ti0.8333P3O12,9.533785,0.19223767752531462
Li0.1130Cr0.0348Al0.0261Ti0.0435P0.1565O0.6261,Li2.1667Cr0.6667Al0.5Ti0.8333P3O12,9.533785,0.23337387854331235
Li0.1130Cr0.0522Al0.0087Ti0.0435P0.1565O0.6261,Li2.1667Cr1.0Al0.1667Ti0.8333P3O12,7.845156,0.2440051305021541
Li0.1130Cr0.0609Al0.0000Ti0.0435P0.1565O0.6261,Li2.1667Cr1.1667Al0.0Ti0.8333P3O12,13.286617,
Li0.1207Cr0.0000Al0.0690Ti0.0345P0.1552O0.6207,Li2.3333Cr0.0Al1.3333Ti0.6667P3O12,9.286814,
Li0.1207Cr0.0172Al0.0517Ti0.0345P0.1552O0.6207,Li2.3333Cr0.3333Al1.0Ti0.6667P3O12,9.533785,0.3035856281100527
Li0.1207Cr0.0259Al0.0431Ti0.0345P0.1552O0.6207,Li2.3333Cr0.5Al0.8333Ti0.6667P3O12,9.533785,0.18127791147989322
Li0.1207Cr0.0431Al0.0259Ti0.0345P0.1552O0.6207,Li2.3333Cr0.8333Al0.5Ti0.6667P3O12,9.249608,0.2532772388498962
Li0.1207Cr0.0517Al0.0172Ti0.0345P0.1552O0.6207,Li2.3333Cr1.0Al0.3333Ti0.6667P3O12,7.845156,0.6437277481868133
Li0.1207Cr0.0690Al0.0000Ti0.0345P0.1552O0.6207,Li2.3333Cr1.3333Al0.0Ti0.6667P3O12,13.286617,
Li0.1282Cr0.0000Al0.0769Ti0.0256P0.1538O0.6154,Li2.5Cr0.0Al1.5Ti0.5P3O12,9.286814,
Li0.1282Cr0.0085Al0.0684Ti0.0256P0.1538O0.6154,Li2.5Cr0.1667Al1.3333Ti0.5P3O12,9.286814,0.18246705137099933
Li0.1282Cr0.0171Al0.0598Ti0.0256P0.1538O0.6154,Li2.5Cr0.3333Al1.1667Ti0.5P3O12,9.286814,0.3221748893253734
Li0.1282Cr0.0256Al0.0513Ti0.0256P0.1538O0.6154,Li2.5Cr0.5Al1.0Ti0.5P3O12,9.533785,0.44169650109274694
Li0.1282Cr0.0342Al0.0427Ti0.0256P0.1538O0.6154,Li2.5Cr0.6667Al0.8333Ti0.5P3O12,9.533785,0.20300681333840673
Li0.1282Cr0.0427Al0.0342Ti0.0256P0.1538O0.6154,Li2.5Cr0.8333Al0.6667Ti0.5P3O12,9.249608,0.23272382110386403
Li0.1282Cr0.0513Al0.0256Ti0.0256P0.1538O0.6154,Li2.5Cr1.0Al0.5Ti0.5P3O12,9.249608,1.0855731045784414
Li0.1282Cr0.0598Al0.0171Ti0.0256P0.1538O0.6154,Li2.5Cr1.1667Al0.3333Ti0.5P3O12,7.845156,0.7323218395379401
Li0.1282Cr0.0684Al0.0085Ti0.0256P0.1538O0.6154,Li2.5Cr1.3333Al0.1667Ti0.5P3O12,13.286617,0.32017157765154847
Li0.1282Cr0.0769Al0.0000Ti0.0256P0.1538O0.6154,Li2.5Cr1.5Al0.0Ti0.5P3O12,13.286617,
Li0.1356Cr0.0000Al0.0847Ti0.0169P0.1525O0.6102,Li2.6667Cr0.0Al1.6667Ti0.3333P3O12,9.286814,
Li0.1356Cr0.0085Al0.0763Ti0.0169P0.1525O0.6102,Li2.6667Cr0.1667Al1.5Ti0.3333P3O12,9.286814,0.2025439475230916
Li0.1356Cr0.0254Al0.0593Ti0.0169P0.1525O0.6102,Li2.6667Cr0.5Al1.1667Ti0.3333P3O12,9.286814,0.4712370949309321
Li0.1356Cr0.0339Al0.0508Ti0.0169P0.1525O0.6102,Li2.6667Cr0.6667Al1.0Ti0.3333P3O12,9.533785,0.5610061833115644
Li0.1356Cr0.0508Al0.0339Ti0.0169P0.1525O0.6102,Li2.6667Cr1.0Al0.6667Ti0.3333P3O12,9.249608,1.5385449390889536
Li0.1356Cr0.0593Al0.0254Ti0.0169P0.1525O0.6102,Li2.6667Cr1.1667Al0.5Ti0.3333P3O12,9.249608,1.2571219052417546
Li0.1356Cr0.0763Al0.0085Ti0.0169P0.1525O0.6102,Li2.6667Cr1.5Al0.1667Ti0.3333P3O12,13.286617,0.4069253193649868
Li0.1356Cr0.0847Al0.0000Ti0.0169P0.1525O0.6102,Li2.6667Cr1.6667Al0.0Ti0.3333P3O12,13.699678,
Li0.1429Cr0.0000Al0.0924Ti0.0084P0.1513O0.6050,Li2.8333Cr0.0Al1.8333Ti0.1667P3O12,13.018343,
Li0.1429Cr0.0168Al0.0756Ti0.0084P0.1513O0.6050,Li2.8333Cr0.3333Al1.5Ti0.1667P3O12,13.018343,0.40163321527419626
Li0.1429Cr0.0252Al0.0672Ti0.0084P0.1513O0.6050,Li2.8333Cr0.5Al1.3333Ti0.1667P3O12,13.018343,0.5445353131122941
Li0.1429Cr0.0420Al0.0504Ti0.0084P0.1513O0.6050,Li2.8333Cr0.8333Al1.0Ti0.1667P3O12,12.981137,0.7197810092275144
Li0.1429Cr0.0504Al0.0420Ti0.0084P0.1513O0.6050,Li2.8333Cr1.0Al0.8333Ti0.1667P3O12,12.981137,2.317049959438688
Li0.1429Cr0.0672Al0.0252Ti0.0084P0.1513O0.6050,Li2.8333Cr1.3333Al0.5Ti0.1667P3O12,17.128801,1.6751634859943312
Li0.1429Cr0.0756Al0.0168Ti0.0084P0.1513O0.6050,Li2.8333Cr1.5Al0.3333Ti0.1667P3O12,17.018145,1.1761247927184302
Li0.1429Cr0.0924Al0.0000Ti0.0084P0.1513O0.6050,Li2.8333Cr1.8333Al0.0Ti0.1667P3O12,17.431204,
Li0.1500Cr0.0000Al0.1000Ti0.0000P0.1500O0.6000,Li3.0Cr0.0Al2.0Ti0.0P3O12,15.867943,
Li0.1500Cr0.0083Al0.0917Ti0.0000P0.1500O0.6000,Li3.0Cr0.1667Al1.8333Ti0.0P3O12,15.070612,
Li0.1500Cr0.0167Al0.0833Ti0.0000P0.1500O0.6000,Li3.0Cr0.3333Al1.6667Ti0.0P3O12,15.070612,
Li0.1500Cr0.0250Al0.0750Ti0.0000P0.1500O0.6000,Li3.0Cr0.5Al1.5Ti0.0P3O12,15.070612,
Li0.1500Cr0.0333Al0.0667Ti0.0000P0.1500O0.6000,Li3.0Cr0.6667Al1.3333Ti0.0P3O12,15.070612,
Li0.1500Cr0.0417Al0.0583Ti0.0000P0.1500O0.6000,Li3.0Cr0.8333Al1.1667Ti0.0P3O12,15.033405,
Li0.1500Cr0.0500Al0.0500Ti0.0000P0.1500O0.6000,Li3.0Cr1.0Al1.0Ti0.0P3O12,15.033405,
Li0.1500Cr0.0583Al0.0417Ti0.0000P0.1500O0.6000,Li3.0Cr1.1667Al0.8333Ti0.0P3O12,15.033405,
Li0.1500Cr0.0667Al0.0333Ti0.0000P0.1500O0.6000,Li3.0Cr1.3333Al0.6667Ti0.0P3O12,17.600924,
Li0.1500Cr0.0750Al0.0250Ti0.0000P0.1500O0.6000,Li3.0Cr1.5Al0.5Ti0.0P3O12,17.600924,
Li0.1500Cr0.0833Al0.0167Ti0.0000P0.1500O0.6000,Li3.0Cr1.6667Al0.3333Ti0.0P3O12,17.903326,
Li0.1500Cr0.0917Al0.0083Ti0.0000P0.1500O0.6000,Li3.0Cr1.8333Al0.1667Ti0.0P3O12,17.903326,
Li0.1500Cr0.1000Al0.0000Ti0.0000P0.1500O0.6000,Li3.0Cr2.0Al0.0Ti0.0P3O12,17.903326,
Li0.0556Cr0.0000As0.0000Ti0.1111P0.1667O0.6667,Li1.0Cr0.0As0.0Ti2.0P3O12,7.7087817,
Li0.0642Cr0.0000As0.0092Ti0.1009P0.1651O0.6605,Li1.1667Cr0.0As0.1667Ti1.8333P3O12,7.7087817,
Li0.0642Cr0.0092As0.0000Ti0.1009P0.1651O0.6605,Li1.1667Cr0.1667As0.0Ti1.8333P3O12,7.7087817,
Li0.0727Cr0.0000As0.0182Ti0.0909P0.1636O0.6545,Li1.3333Cr0.0As0.3333Ti1.6667P3O12,7.7087817,
Li0.0727Cr0.0182As0.0000Ti0.0909P0.1636O0.6545,Li1.3333Cr0.3333As0.0Ti1.6667P3O12,7.7087817,
Li0.0811Cr0.0000As0.0270Ti0.0811P0.1622O0.6486,Li1.5Cr0.0As0.5Ti1.5P3O12,7.750805,
Li0.0811Cr0.0090As0.0180Ti0.0811P0.1622O0.6486,Li1.5Cr0.1667As0.3333Ti1.5P3O12,7.750805,0.17250222851818042
Li0.0811Cr0.0180As0.0090Ti0.0811P0.1622O0.6486,Li1.5Cr0.3333As0.1667Ti1.5P3O12,7.750805,0.3639486920819951
Li0.0811Cr0.0270As0.0000Ti0.0811P0.1622O0.6486,Li1.5Cr0.5As0.0Ti1.5P3O12,7.750805,
Li0.0893Cr0.0000As0.0357Ti0.0714P0.1607O0.6429,Li1.6667Cr0.0As0.6667Ti1.3333P3O12,8.129335,
Li0.0893Cr0.0089As0.0268Ti0.0714P0.1607O0.6429,Li1.6667Cr0.1667As0.5Ti1.3333P3O12,8.129335,0.15689267039976607
Li0.0893Cr0.0268As0.0089Ti0.0714P0.1607O0.6429,Li1.6667Cr0.5As0.1667Ti1.3333P3O12,8.129335,0.4962209947395853
Li0.0893Cr0.0357As0.0000Ti0.0714P0.1607O0.6429,Li1.6667Cr0.6667As0.0Ti1.3333P3O12,8.129335,
Li0.0973Cr0.0000As0.0442Ti0.0619P0.1593O0.6372,Li1.8333Cr0.0As0.8333Ti1.1667P3O12,8.129335,
Li0.0973Cr0.0177As0.0265Ti0.0619P0.1593O0.6372,Li1.8333Cr0.3333As0.5Ti1.1667P3O12,8.129335,0.2810759518139929
Li0.0973Cr0.0265As0.0177Ti0.0619P0.1593O0.6372,Li1.8333Cr0.5As0.3333Ti1.1667P3O12,8.129335,0.42821948220488787
Li0.0973Cr0.0442As0.0000Ti0.0619P0.1593O0.6372,Li1.8333Cr0.8333As0.0Ti1.1667P3O12,7.845156,
Li0.1053Cr0.0000As0.0526Ti0.0526P0.1579O0.6316,Li2.0Cr0.0As1.0Ti1.0P3O12,8.129335,
Li0.1053Cr0.0088As0.0439Ti0.0526P0.1579O0.6316,Li2.0Cr0.1667As0.8333Ti1.0P3O12,8.129335,0.1395840994544692
Li0.1053Cr0.0175As0.0351Ti0.0526P0.1579O0.6316,Li2.0Cr0.3333As0.6667Ti1.0P3O12,8.129335,0.2673605469478148
Li0.1053Cr0.0263As0.0263Ti0.0526P0.1579O0.6316,Li2.0Cr0.5As0.5Ti1.0P3O12,8.129335,0.3937260057040919
Li0.1053Cr0.0351As0.0175Ti0.0526P0.1579O0.6316,Li2.0Cr0.6667As0.3333Ti1.0P3O12,8.129335,0.5159063887358819
Li0.1053Cr0.0439As0.0088Ti0.0526P0.1579O0.6316,Li2.0Cr0.8333As0.1667Ti1.0P3O12,7.845156,0.6785574124200766
Li0.1053Cr0.0526As0.0000Ti0.0526P0.1579O0.6316,Li2.0Cr1.0As0.0Ti1.0P3O12,7.845156,
Li0.1130Cr0.0000As0.0609Ti0.0435P0.1565O0.6261,Li2.1667Cr0.0As1.1667Ti0.8333P3O12,8.129335,
Li0.1130Cr0.0087As0.0522Ti0.0435P0.1565O0.6261,Li2.1667Cr0.1667As1.0Ti0.8333P3O12,8.129335,0.025854358113087332
Li0.1130Cr0.0261As0.0348Ti0.0435P0.1565O0.6261,Li2.1667Cr0.5As0.6667Ti0.8333P3O12,8.129335,0.02724414418209282
Li0.1130Cr0.0348As0.0261Ti0.0435P0.1565O0.6261,Li2.1667Cr0.6667As0.5Ti0.8333P3O12,8.129335,0.03609344699373521
Li0.1130Cr0.0522As0.0087Ti0.0435P0.1565O0.6261,Li2.1667Cr1.0As0.1667Ti0.8333P3O12,7.845156,0.6117418117920556
Li0.1130Cr0.0609As0.0000Ti0.0435P0.1565O0.6261,Li2.1667Cr1.1667As0.0Ti0.8333P3O12,13.286617,
Li0.1207Cr0.0000As0.0690Ti0.0345P0.1552O0.6207,Li2.3333Cr0.0As1.3333Ti0.6667P3O12,8.129335,
Li0.1207Cr0.0172As0.0517Ti0.0345P0.1552O0.6207,Li2.3333Cr0.3333As1.0Ti0.6667P3O12,8.129335,0.05375220334200948
Li0.1207Cr0.0259As0.0431Ti0.0345P0.1552O0.6207,Li2.3333Cr0.5As0.8333Ti0.6667P3O12,8.129335,0.023716054462207134
Li0.1207Cr0.0431As0.0259Ti0.0345P0.1552O0.6207,Li2.3333Cr0.8333As0.5Ti0.6667P3O12,7.845156,0.038479371153871754
Li0.1207Cr0.0517As0.0172Ti0.0345P0.1552O0.6207,Li2.3333Cr1.0As0.3333Ti0.6667P3O12,7.845156,0.8351543701345662
Li0.1207Cr0.0690As0.0000Ti0.0345P0.1552O0.6207,Li2.3333Cr1.3333As0.0Ti0.6667P3O12,13.286617,
Li0.1282Cr0.0000As0.0769Ti0.0256P0.1538O0.6154,Li2.5Cr0.0As1.5Ti0.5P3O12,8.129335,
Li0.1282Cr0.0085As0.0684Ti0.0256P0.1538O0.6154,Li2.5Cr0.1667As1.3333Ti0.5P3O12,8.129335,0.0320322597859228
Li0.1282Cr0.0171As0.0598Ti0.0256P0.1538O0.6154,Li2.5Cr0.3333As1.1667Ti0.5P3O12,8.129335,0.05931515955893128
Li0.1282Cr0.0256As0.0513Ti0.0256P0.1538O0.6154,Li2.5Cr0.5As1.0Ti0.5P3O12,8.129335,0.08154081464161338
Li0.1282Cr0.0342As0.0427Ti0.0256P0.1538O0.6154,Li2.5Cr0.6667As0.8333Ti0.5P3O12,8.129335,0.025516956896055747
Li0.1282Cr0.0427As0.0342Ti0.0256P0.1538O0.6154,Li2.5Cr0.8333As0.6667Ti0.5P3O12,7.845156,0.03138087153523259
Li0.1282Cr0.0513As0.0256Ti0.0256P0.1538O0.6154,Li2.5Cr1.0As0.5Ti0.5P3O12,7.845156,0.9735051021415966
Li0.1282Cr0.0598As0.0171Ti0.0256P0.1538O0.6154,Li2.5Cr1.1667As0.3333Ti0.5P3O12,7.845156,0.8926607820483613
Li0.1282Cr0.0684As0.0085Ti0.0256P0.1538O0.6154,Li2.5Cr1.3333As0.1667Ti0.5P3O12,13.286617,0.6993358515851793
Li0.1282Cr0.0769As0.0000Ti0.0256P0.1538O0.6154,Li2.5Cr1.5As0.0Ti0.5P3O12,13.286617,
Li0.1356Cr0.0000As0.0847Ti0.0169P0.1525O0.6102,Li2.6667Cr0.0As1.6667Ti0.3333P3O12,8.129335,
Li0.1356Cr0.0085As0.0763Ti0.0169P0.1525O0.6102,Li2.6667Cr0.1667As1.5Ti0.3333P3O12,8.129335,0.0380451566817877
Li0.1356Cr0.0254As0.0593Ti0.0169P0.1525O0.6102,Li2.6667Cr0.5As1.1667Ti0.3333P3O12,8.129335,0.09036422182465896
Li0.1356Cr0.0339As0.0508Ti0.0169P0.1525O0.6102,Li2.6667Cr0.6667As1.0Ti0.3333P3O12,8.129335,0.10694594294190805
Li0.1356Cr0.0508As0.0339Ti0.0169P0.1525O0.6102,Li2.6667Cr1.0As0.6667Ti0.3333P3O12,7.845156,1.0979797714622392
Li0.1356Cr0.0593As0.0254Ti0.0169P0.1525O0.6102,Li2.6667Cr1.1667As0.5Ti0.3333P3O12,7.845156,1.06229320131866
Li0.1356Cr0.0763As0.0085Ti0.0169P0.1525O0.6102,Li2.6667Cr1.5As0.1667Ti0.3333P3O12,13.286617,0.7796331319788098
Li0.1356Cr0.0847As0.0000Ti0.0169P0.1525O0.6102,Li2.6667Cr1.6667As0.0Ti0.3333P3O12,13.699678,
Li0.1429Cr0.0000As0.0924Ti0.0084P0.1513O0.6050,Li2.8333Cr0.0As1.8333Ti0.1667P3O12,11.860868,
Li0.1429Cr0.0168As0.0756Ti0.0084P0.1513O0.6050,Li2.8333Cr0.3333As1.5Ti0.1667P3O12,11.860868,0.08007056628695686
Li0.1429Cr0.0252As0.0672Ti0.0084P0.1513O0.6050,Li2.8333Cr0.5As1.3333Ti0.1667P3O12,11.860868,0.10449233979035125
Li0.1429Cr0.0420As0.0504Ti0.0084P0.1513O0.6050,Li2.8333Cr0.8333As1.0Ti0.1667P3O12,11.576692,0.13934101508473645
Li0.1429Cr0.0504As0.0420Ti0.0084P0.1513O0.6050,Li2.8333Cr1.0As0.8333Ti0.1667P3O12,11.576692,1.352747574787388
Li0.1429Cr0.0672As0.0252Ti0.0084P0.1513O0.6050,Li2.8333Cr1.3333As0.5Ti0.1667P3O12,17.018145,1.2981756656333556
Li0.1429Cr0.0756As0.0168Ti0.0084P0.1513O0.6050,Li2.8333Cr1.5As0.3333Ti0.1667P3O12,17.018145,1.188836465905083
Li0.1429Cr0.0924As0.0000Ti0.0084P0.1513O0.6050,Li2.8333Cr1.8333As0.0Ti0.1667P3O12,17.431204,
Li0.1500Cr0.0000As0.1000Ti0.0000P0.1500O0.6000,Li3.0Cr0.0As2.0Ti0.0P3O12,15.206924,
Li0.1500Cr0.0083As0.0917Ti0.0000P0.1500O0.6000,Li3.0Cr0.1667As1.8333Ti0.0P3O12,15.206924,
Li0.1500Cr0.0167As0.0833Ti0.0000P0.1500O0.6000,Li3.0Cr0.3333As1.6667Ti0.0P3O12,15.206924,
Li0.1500Cr0.0250As0.0750Ti0.0000P0.1500O0.6000,Li3.0Cr0.5As1.5Ti0.0P3O12,15.206924,
Li0.1500Cr0.0333As0.0667Ti0.0000P0.1500O0.6000,Li3.0Cr0.6667As1.3333Ti0.0P3O12,15.206924,
Li0.1500Cr0.0417As0.0583Ti0.0000P0.1500O0.6000,Li3.0Cr0.8333As1.1667Ti0.0P3O12,14.922748,
Li0.1500Cr0.0500As0.0500Ti0.0000P0.1500O0.6000,Li3.0Cr1.0As1.0Ti0.0P3O12,14.922748,
Li0.1500Cr0.0583As0.0417Ti0.0000P0.1500O0.6000,Li3.0Cr1.1667As0.8333Ti0.0P3O12,14.922748,
Li0.1500Cr0.0667As0.0333Ti0.0000P0.1500O0.6000,Li3.0Cr1.3333As0.6667Ti0.0P3O12,17.490267,
Li0.1500Cr0.0750As0.0250Ti0.0000P0.1500O0.6000,Li3.0Cr1.5As0.5Ti0.0P3O12,17.490267,
Li0.1500Cr0.0833As0.0167Ti0.0000P0.1500O0.6000,Li3.0Cr1.6667As0.3333Ti0.0P3O12,17.903326,
Li0.1500Cr0.0917As0.0083Ti0.0000P0.1500O0.6000,Li3.0Cr1.8333As0.1667Ti0.0P3O12,17.903326,
Li0.1500Cr0.1000As0.0000Ti0.0000P0.1500O0.6000,Li3.0Cr2.0As0.0Ti0.0P3O12,17.903326,
Li0.0556Cr0.0000B0.0000Ti0.1111P0.1667O0.6667,Li1.0Cr0.0B0.0Ti2.0P3O12,7.7087817,
Li0.0642Cr0.0000B0.0092Ti0.1009P0.1651O0.6605,Li1.1667Cr0.0B0.1667Ti1.8333P3O12,7.7087817,