formula,original_formula,thermal_expansion,li ion conductivity
Li0.1282Ga0.0342Ni0.0427Ti0.0256P0.1538O0.6154,Li2.5Ga0.6667Ni0.8333Ti0.5P3O12,13.3436775,1.3035925475455556e-06
Li0.1282Ga0.0427Ni0.0342Ti0.0256P0.1538O0.6154,Li2.5Ga0.8333Ni0.6667Ti0.5P3O12,13.299151,1.965738284422057e-06
Li0.1282Ga0.0513Ni0.0256Ti0.0256P0.1538O0.6154,Li2.5Ga1.0Ni0.5Ti0.5P3O12,13.299151,0.30501343693741156
Li0.1282Ga0.0598Ni0.0171Ti0.0256P0.1538O0.6154,Li2.5Ga1.1667Ni0.3333Ti0.5P3O12,6.7658024,0.23384800973040307
Li0.1282Ga0.0684Ni0.0085Ti0.0256P0.1538O0.6154,Li2.5Ga1.3333Ni0.1667Ti0.5P3O12,6.7658024,0.1394950853682656
Li0.1282Ga0.0769Ni0.0000Ti0.0256P0.1538O0.6154,Li2.5Ga1.5Ni0.0Ti0.5P3O12,6.7658024,
Li0.1356Ga0.0000Ni0.0847Ti0.0169P0.1525O0.6102,Li2.6667Ga0.0Ni1.6667Ti0.3333P3O12,13.38264,
Li0.1356Ga0.0085Ni0.0763Ti0.0169P0.1525O0.6102,Li2.6667Ga0.1667Ni1.5Ti0.3333P3O12,13.441338,0.0937860845511806
Li0.1356Ga0.0254Ni0.0593Ti0.0169P0.1525O0.6102,Li2.6667Ga0.5Ni1.1667Ti0.3333P3O12,13.3436775,0.12741304092584724
Li0.1356Ga0.0339Ni0.0508Ti0.0169P0.1525O0.6102,Li2.6667Ga0.6667Ni1.0Ti0.3333P3O12,13.3436775,0.14040065891885758
Li0.1356Ga0.0508Ni0.0339Ti0.0169P0.1525O0.6102,Li2.6667Ga1.0Ni0.6667Ti0.3333P3O12,13.299151,0.3823859159933948
Li0.1356Ga0.0593Ni0.0254Ti0.0169P0.1525O0.6102,Li2.6667Ga1.1667Ni0.5Ti0.3333P3O12,11.965636,0.32317574080499806
Li0.1356Ga0.0763Ni0.0085Ti0.0169P0.1525O0.6102,Li2.6667Ga1.5Ni0.1667Ti0.3333P3O12,6.7658024,0.15537843863470474
Li0.1356Ga0.0847Ni0.0000Ti0.0169P0.1525O0.6102,Li2.6667Ga1.6667Ni0.0Ti0.3333P3O12,6.7658024,
Li0.1429Ga0.0000Ni0.0924Ti0.0084P0.1513O0.6050,Li2.8333Ga0.0Ni1.8333Ti0.1667P3O12,15.33442,
Li0.1429Ga0.0168Ni0.0756Ti0.0084P0.1513O0.6050,Li2.8333Ga0.3333Ni1.5Ti0.1667P3O12,15.363104,0.15633501980728973
Li0.1429Ga0.0252Ni0.0672Ti0.0084P0.1513O0.6050,Li2.8333Ga0.5Ni1.3333Ti0.1667P3O12,15.363104,0.17645879329545933
Li0.1429Ga0.0420Ni0.0504Ti0.0084P0.1513O0.6050,Li2.8333Ga0.8333Ni1.0Ti0.1667P3O12,15.295458,0.2020996661027732
Li0.1429Ga0.0504Ni0.0420Ti0.0084P0.1513O0.6050,Li2.8333Ga1.0Ni0.8333Ti0.1667P3O12,15.295458,0.46961551764696247
Li0.1429Ga0.0672Ni0.0252Ti0.0084P0.1513O0.6050,Li2.8333Ga1.3333Ni0.5Ti0.1667P3O12,13.917417,0.3608680974950338
Li0.1429Ga0.0756Ni0.0168Ti0.0084P0.1513O0.6050,Li2.8333Ga1.5Ni0.3333Ti0.1667P3O12,10.497339,0.2858259502426714
Li0.1429Ga0.0924Ni0.0000Ti0.0084P0.1513O0.6050,Li2.8333Ga1.8333Ni0.0Ti0.1667P3O12,10.497339,
Li0.1500Ga0.0000Ni0.1000Ti0.0000P0.1500O0.6000,Li3.0Ga0.0Ni2.0Ti0.0P3O12,18.680473,
Li0.1500Ga0.0083Ni0.0917Ti0.0000P0.1500O0.6000,Li3.0Ga0.1667Ni1.8333Ti0.0P3O12,18.680473,
Li0.1500Ga0.0167Ni0.0833Ti0.0000P0.1500O0.6000,Li3.0Ga0.3333Ni1.6667Ti0.0P3O12,18.65046,
Li0.1500Ga0.0250Ni0.0750Ti0.0000P0.1500O0.6000,Li3.0Ga0.5Ni1.5Ti0.0P3O12,18.709158,
Li0.1500Ga0.0333Ni0.0667Ti0.0000P0.1500O0.6000,Li3.0Ga0.6667Ni1.3333Ti0.0P3O12,18.709158,
Li0.1500Ga0.0417Ni0.0583Ti0.0000P0.1500O0.6000,Li3.0Ga0.8333Ni1.1667Ti0.0P3O12,18.641512,
Li0.1500Ga0.0500Ni0.0500Ti0.0000P0.1500O0.6000,Li3.0Ga1.0Ni1.0Ti0.0P3O12,18.641512,
Li0.1500Ga0.0583Ni0.0417Ti0.0000P0.1500O0.6000,Li3.0Ga1.1667Ni0.8333Ti0.0P3O12,18.641512,
Li0.1500Ga0.0667Ni0.0333Ti0.0000P0.1500O0.6000,Li3.0Ga1.3333Ni0.6667Ti0.0P3O12,17.26347,
Li0.1500Ga0.0750Ni0.0250Ti0.0000P0.1500O0.6000,Li3.0Ga1.5Ni0.5Ti0.0P3O12,17.26347,
Li0.1500Ga0.0833Ni0.0167Ti0.0000P0.1500O0.6000,Li3.0Ga1.6667Ni0.3333Ti0.0P3O12,13.843395,
Li0.1500Ga0.0917Ni0.0083Ti0.0000P0.1500O0.6000,Li3.0Ga1.8333Ni0.1667Ti0.0P3O12,13.843395,
Li0.1500Ga0.1000Ni0.0000Ti0.0000P0.1500O0.6000,Li3.0Ga2.0Ni0.0Ti0.0P3O12,13.755412,
Li0.0556Ga0.0000Sb0.0000Ti0.1111P0.1667O0.6667,Li1.0Ga0.0Sb0.0Ti2.0P3O12,7.7087817,
Li0.0642Ga0.0000Sb0.0092Ti0.1009P0.1651O0.6605,Li1.1667Ga0.0Sb0.1667Ti1.8333P3O12,7.7087817,
Li0.0642Ga0.0092Sb0.0000Ti0.1009P0.1651O0.6605,Li1.1667Ga0.1667Sb0.0Ti1.8333P3O12,7.7087817,
Li0.0727Ga0.0000Sb0.0182Ti0.0909P0.1636O0.6545,Li1.3333Ga0.0Sb0.3333Ti1.6667P3O12,8.6522875,
Li0.0727Ga0.0182Sb0.0000Ti0.0909P0.1636O0.6545,Li1.3333Ga0.3333Sb0.0Ti1.6667P3O12,7.678768,
Li0.0811Ga0.0000Sb0.0270Ti0.0811P0.1622O0.6486,Li1.5Ga0.0Sb0.5Ti1.5P3O12,8.677033,
Li0.0811Ga0.0090Sb0.0180Ti0.0811P0.1622O0.6486,Li1.5Ga0.1667Sb0.3333Ti1.5P3O12,8.69431,0.03665262081911999
Li0.0811Ga0.0180Sb0.0090Ti0.0811P0.1622O0.6486,Li1.5Ga0.3333Sb0.1667Ti1.5P3O12,7.7207913,0.05699377545230031
Li0.0811Ga0.0270Sb0.0000Ti0.0811P0.1622O0.6486,Li1.5Ga0.5Sb0.0Ti1.5P3O12,7.7207913,
Li0.0893Ga0.0000Sb0.0357Ti0.0714P0.1607O0.6429,Li1.6667Ga0.0Sb0.6667Ti1.3333P3O12,9.055562,
Li0.0893Ga0.0089Sb0.0268Ti0.0714P0.1607O0.6429,Li1.6667Ga0.1667Sb0.5Ti1.3333P3O12,9.055562,0.027655287838421586
Li0.0893Ga0.0268Sb0.0089Ti0.0714P0.1607O0.6429,Li1.6667Ga0.5Sb0.1667Ti1.3333P3O12,8.099321,0.052530587020714746
Li0.0893Ga0.0357Sb0.0000Ti0.0714P0.1607O0.6429,Li1.6667Ga0.6667Sb0.0Ti1.3333P3O12,8.099321,
Li0.0973Ga0.0000Sb0.0442Ti0.0619P0.1593O0.6372,Li1.8333Ga0.0Sb0.8333Ti1.1667P3O12,9.055562,
Li0.0973Ga0.0177Sb0.0265Ti0.0619P0.1593O0.6372,Li1.8333Ga0.3333Sb0.5Ti1.1667P3O12,8.652914,0.02566165086708162
Li0.0973Ga0.0265Sb0.0177Ti0.0619P0.1593O0.6372,Li1.8333Ga0.5Sb0.3333Ti1.1667P3O12,8.670191,0.03091332238290598
Li0.0973Ga0.0442Sb0.0000Ti0.0619P0.1593O0.6372,Li1.8333Ga0.8333Sb0.0Ti1.1667P3O12,8.099321,
Li0.1053Ga0.0000Sb0.0526Ti0.0526P0.1579O0.6316,Li2.0Ga0.0Sb1.0Ti1.0P3O12,9.055562,
Li0.1053Ga0.0088Sb0.0439Ti0.0526P0.1579O0.6316,Li2.0Ga0.1667Sb0.8333Ti1.0P3O12,9.055562,0.018515042743876286
Li0.1053Ga0.0175Sb0.0351Ti0.0526P0.1579O0.6316,Li2.0Ga0.3333Sb0.6667Ti1.0P3O12,8.652914,0.020385188326859448
Li0.1053Ga0.0263Sb0.0263Ti0.0526P0.1579O0.6316,Li2.0Ga0.5Sb0.5Ti1.0P3O12,8.652914,0.02186062387426599
Li0.1053Ga0.0351Sb0.0175Ti0.0526P0.1579O0.6316,Li2.0Ga0.6667Sb0.3333Ti1.0P3O12,8.670191,0.02679906604453734
Li0.1053Ga0.0439Sb0.0088Ti0.0526P0.1579O0.6316,Li2.0Ga0.8333Sb0.1667Ti1.0P3O12,8.099321,0.043679904180810226
Li0.1053Ga0.0526Sb0.0000Ti0.0526P0.1579O0.6316,Li2.0Ga1.0Sb0.0Ti1.0P3O12,8.099321,
Li0.1130Ga0.0000Sb0.0609Ti0.0435P0.1565O0.6261,Li2.1667Ga0.0Sb1.1667Ti0.8333P3O12,9.055562,
Li0.1130Ga0.0087Sb0.0522Ti0.0435P0.1565O0.6261,Li2.1667Ga0.1667Sb1.0Ti0.8333P3O12,9.055562,0.05994906859148612
Li0.1130Ga0.0261Sb0.0348Ti0.0435P0.1565O0.6261,Li2.1667Ga0.5Sb0.6667Ti0.8333P3O12,8.652914,3.923457386439503e-08
Li0.1130Ga0.0348Sb0.0261Ti0.0435P0.1565O0.6261,Li2.1667Ga0.6667Sb0.5Ti0.8333P3O12,8.652914,5.7298396714628153e-08
Li0.1130Ga0.0522Sb0.0087Ti0.0435P0.1565O0.6261,Li2.1667Ga1.0Sb0.1667Ti0.8333P3O12,8.099321,0.0144650931935207
Li0.1130Ga0.0609Sb0.0000Ti0.0435P0.1565O0.6261,Li2.1667Ga1.1667Sb0.0Ti0.8333P3O12,6.7658024,
Li0.1207Ga0.0000Sb0.0690Ti0.0345P0.1552O0.6207,Li2.3333Ga0.0Sb1.3333Ti0.6667P3O12,9.055562,
Li0.1207Ga0.0172Sb0.0517Ti0.0345P0.1552O0.6207,Li2.3333Ga0.3333Sb1.0Ti0.6667P3O12,8.652914,0.08565930452461819
Li0.1207Ga0.0259Sb0.0431Ti0.0345P0.1552O0.6207,Li2.3333Ga0.5Sb0.8333Ti0.6667P3O12,8.652914,2.68683025488379e-08
Li0.1207Ga0.0431Sb0.0259Ti0.0345P0.1552O0.6207,Li2.3333Ga0.8333Sb0.5Ti0.6667P3O12,8.652914,5.287151804126884e-08
Li0.1207Ga0.0517Sb0.0172Ti0.0345P0.1552O0.6207,Li2.3333Ga1.0Sb0.3333Ti0.6667P3O12,8.670191,0.0227077690723961
Li0.1207Ga0.0690Sb0.0000Ti0.0345P0.1552O0.6207,Li2.3333Ga1.3333Sb0.0Ti0.6667P3O12,6.7658024,
Li0.1282Ga0.0000Sb0.0769Ti0.0256P0.1538O0.6154,Li2.5Ga0.0Sb1.5Ti0.5P3O12,9.055562,
Li0.1282Ga0.0085Sb0.0684Ti0.0256P0.1538O0.6154,Li2.5Ga0.1667Sb1.3333Ti0.5P3O12,9.055562,0.07168695606722125
Li0.1282Ga0.0171Sb0.0598Ti0.0256P0.1538O0.6154,Li2.5Ga0.3333Sb1.1667Ti0.5P3O12,8.652914,0.09396707989423028
Li0.1282Ga0.0256Sb0.0513Ti0.0256P0.1538O0.6154,Li2.5Ga0.5Sb1.0Ti0.5P3O12,8.652914,0.10138586060838463
Li0.1282Ga0.0342Sb0.0427Ti0.0256P0.1538O0.6154,Li2.5Ga0.6667Sb0.8333Ti0.5P3O12,8.652914,2.3527787011131987e-08
Li0.1282Ga0.0427Sb0.0342Ti0.0256P0.1538O0.6154,Li2.5Ga0.8333Sb0.6667Ti0.5P3O12,8.652914,3.2221539755177655e-08
Li0.1282Ga0.0513Sb0.0256Ti0.0256P0.1538O0.6154,Li2.5Ga1.0Sb0.5Ti0.5P3O12,8.652914,0.02892559179231331
Li0.1282Ga0.0598Sb0.0171Ti0.0256P0.1538O0.6154,Li2.5Ga1.1667Sb0.3333Ti0.5P3O12,7.3366704,0.023540810102277952
Li0.1282Ga0.0684Sb0.0085Ti0.0256P0.1538O0.6154,Li2.5Ga1.3333Sb0.1667Ti0.5P3O12,6.7658024,0.01568760483214166
Li0.1282Ga0.0769Sb0.0000Ti0.0256P0.1538O0.6154,Li2.5Ga1.5Sb0.0Ti0.5P3O12,6.7658024,
Li0.1356Ga0.0000Sb0.0847Ti0.0169P0.1525O0.6102,Li2.6667Ga0.0Sb1.6667Ti0.3333P3O12,9.055562,
Li0.1356Ga0.0085Sb0.0763Ti0.0169P0.1525O0.6102,Li2.6667Ga0.1667Sb1.5Ti0.3333P3O12,9.055562,0.08417540294129906
Li0.1356Ga0.0254Sb0.0593Ti0.0169P0.1525O0.6102,Li2.6667Ga0.5Sb1.1667Ti0.3333P3O12,8.652914,0.11446423392069366
Li0.1356Ga0.0339Sb0.0508Ti0.0169P0.1525O0.6102,Li2.6667Ga0.6667Sb1.0Ti0.3333P3O12,8.652914,0.11576325722364238
Li0.1356Ga0.0508Sb0.0339Ti0.0169P0.1525O0.6102,Li2.6667Ga1.0Sb0.6667Ti0.3333P3O12,8.652914,0.0348323017517158
Li0.1356Ga0.0593Sb0.0254Ti0.0169P0.1525O0.6102,Li2.6667Ga1.1667Sb0.5Ti0.3333P3O12,7.3193927,0.030045793632691727
Li0.1356Ga0.0763Sb0.0085Ti0.0169P0.1525O0.6102,Li2.6667Ga1.5Sb0.1667Ti0.3333P3O12,6.7658024,0.016662887378138414
Li0.1356Ga0.0847Sb0.0000Ti0.0169P0.1525O0.6102,Li2.6667Ga1.6667Sb0.0Ti0.3333P3O12,6.7658024,
Li0.1429Ga0.0000Sb0.0924Ti0.0084P0.1513O0.6050,Li2.8333Ga0.0Sb1.8333Ti0.1667P3O12,12.787092,
Li0.1429Ga0.0168Sb0.0756Ti0.0084P0.1513O0.6050,Li2.8333Ga0.3333Sb1.5Ti0.1667P3O12,12.384445,0.1406723870489727
Li0.1429Ga0.0252Sb0.0672Ti0.0084P0.1513O0.6050,Li2.8333Ga0.5Sb1.3333Ti0.1667P3O12,12.384445,0.1464970714458868
Li0.1429Ga0.0420Sb0.0504Ti0.0084P0.1513O0.6050,Li2.8333Ga0.8333Sb1.0Ti0.1667P3O12,12.384445,0.1467714125611899
Li0.1429Ga0.0504Sb0.0420Ti0.0084P0.1513O0.6050,Li2.8333Ga1.0Sb0.8333Ti0.1667P3O12,12.384445,0.04296858518280301
Li0.1429Ga0.0672Sb0.0252Ti0.0084P0.1513O0.6050,Li2.8333Ga1.3333Sb0.5Ti0.1667P3O12,11.05093,0.032943505778718934
Li0.1429Ga0.0756Sb0.0168Ti0.0084P0.1513O0.6050,Li2.8333Ga1.5Sb0.3333Ti0.1667P3O12,11.068207,0.026702024435566196
Li0.1429Ga0.0924Sb0.0000Ti0.0084P0.1513O0.6050,Li2.8333Ga1.8333Sb0.0Ti0.1667P3O12,10.497339,
Li0.1500Ga0.0000Sb0.1000Ti0.0000P0.1500O0.6000,Li3.0Ga0.0Sb2.0Ti0.0P3O12,16.133144,
Li0.1500Ga0.0083Sb0.0917Ti0.0000P0.1500O0.6000,Li3.0Ga0.1667Sb1.8333Ti0.0P3O12,16.133144,
Li0.1500Ga0.0167Sb0.0833Ti0.0000P0.1500O0.6000,Li3.0Ga0.3333Sb1.6667Ti0.0P3O12,15.730501,
Li0.1500Ga0.0250Sb0.0750Ti0.0000P0.1500O0.6000,Li3.0Ga0.5Sb1.5Ti0.0P3O12,15.730501,
Li0.1500Ga0.0333Sb0.0667Ti0.0000P0.1500O0.6000,Li3.0Ga0.6667Sb1.3333Ti0.0P3O12,15.730501,
Li0.1500Ga0.0417Sb0.0583Ti0.0000P0.1500O0.6000,Li3.0Ga0.8333Sb1.1667Ti0.0P3O12,15.730501,
Li0.1500Ga0.0500Sb0.0500Ti0.0000P0.1500O0.6000,Li3.0Ga1.0Sb1.0Ti0.0P3O12,15.730501,
Li0.1500Ga0.0583Sb0.0417Ti0.0000P0.1500O0.6000,Li3.0Ga1.1667Sb0.8333Ti0.0P3O12,15.730501,
Li0.1500Ga0.0667Sb0.0333Ti0.0000P0.1500O0.6000,Li3.0Ga1.3333Sb0.6667Ti0.0P3O12,14.396986,
Li0.1500Ga0.0750Sb0.0250Ti0.0000P0.1500O0.6000,Li3.0Ga1.5Sb0.5Ti0.0P3O12,14.396986,
Li0.1500Ga0.0833Sb0.0167Ti0.0000P0.1500O0.6000,Li3.0Ga1.6667Sb0.3333Ti0.0P3O12,14.414263,
Li0.1500Ga0.0917Sb0.0083Ti0.0000P0.1500O0.6000,Li3.0Ga1.8333Sb0.1667Ti0.0P3O12,13.843395,
Li0.1500Ga0.1000Sb0.0000Ti0.0000P0.1500O0.6000,Li3.0Ga2.0Sb0.0Ti0.0P3O12,13.755412,
Li0.0556Ga0.0000Sc0.0000Ti0.1111P0.1667O0.6667,Li1.0Ga0.0Sc0.0Ti2.0P3O12,7.7087817,
Li0.0642Ga0.0000Sc0.0092Ti0.1009P0.1651O0.6605,Li1.1667Ga0.0Sc0.1667Ti1.8333P3O12,8.985445,
Li0.0642Ga0.0092Sc0.0000Ti0.1009P0.1651O0.6605,Li1.1667Ga0.1667Sc0.0Ti1.8333P3O12,7.7087817,
Li0.0727Ga0.0000Sc0.0182Ti0.0909P0.1636O0.6545,Li1.3333Ga0.0Sc0.3333Ti1.6667P3O12,11.915219,
Li0.0727Ga0.0182Sc0.0000Ti0.0909P0.1636O0.6545,Li1.3333Ga0.3333Sc0.0Ti1.6667P3O12,7.678768,
Li0.0811Ga0.0000Sc0.0270Ti0.0811P0.1622O0.6486,Li1.5Ga0.0Sc0.5Ti1.5P3O12,6.105611,
Li0.0811Ga0.0090Sc0.0180Ti0.0811P0.1622O0.6486,Li1.5Ga0.1667Sc0.3333Ti1.5P3O12,11.957242,0.20030938935293613
Li0.0811Ga0.0180Sc0.0090Ti0.0811P0.1622O0.6486,Li1.5Ga0.3333Sc0.1667Ti1.5P3O12,8.997454,0.3374029613294653
Li0.0811Ga0.0270Sc0.0000Ti0.0811P0.1622O0.6486,Li1.5Ga0.5Sc0.0Ti1.5P3O12,7.7207913,
Li0.0893Ga0.0000Sc0.0357Ti0.0714P0.1607O0.6429,Li1.6667Ga0.0Sc0.6667Ti1.3333P3O12,6.484139,
Li0.0893Ga0.0089Sc0.0268Ti0.0714P0.1607O0.6429,Li1.6667Ga0.1667Sc0.5Ti1.3333P3O12,6.484139,0.17720395310642512
Li0.0893Ga0.0268Sc0.0089Ti0.0714P0.1607O0.6429,Li1.6667Ga0.5Sc0.1667Ti1.3333P3O12,9.375982,0.4063201507973334
Li0.0893Ga0.0357Sc0.0000Ti0.0714P0.1607O0.6429,Li1.6667Ga0.6667Sc0.0Ti1.3333P3O12,8.099321,
Li0.0973Ga0.0000Sc0.0442Ti0.0619P0.1593O0.6372,Li1.8333Ga0.0Sc0.8333Ti1.1667P3O12,6.484139,
Li0.0973Ga0.0177Sc0.0265Ti0.0619P0.1593O0.6372,Li1.8333Ga0.3333Sc0.5Ti1.1667P3O12,6.526429,0.23115677247357783
Li0.0973Ga0.0265Sc0.0177Ti0.0619P0.1593O0.6372,Li1.8333Ga0.5Sc0.3333Ti1.1667P3O12,12.305757,0.3145726471667889
Li0.0973Ga0.0442Sc0.0000Ti0.0619P0.1593O0.6372,Li1.8333Ga0.8333Sc0.0Ti1.1667P3O12,8.099321,
Li0.1053Ga0.0000Sc0.0526Ti0.0526P0.1579O0.6316,Li2.0Ga0.0Sc1.0Ti1.0P3O12,6.484139,
Li0.1053Ga0.0088Sc0.0439Ti0.0526P0.1579O0.6316,Li2.0Ga0.1667Sc0.8333Ti1.0P3O12,6.484139,0.15835288095067487
Li0.1053Ga0.0175Sc0.0351Ti0.0526P0.1579O0.6316,Li2.0Ga0.3333Sc0.6667Ti1.0P3O12,6.526429,0.20924248155873976
Li0.1053Ga0.0263Sc0.0263Ti0.0526P0.1579O0.6316,Li2.0Ga0.5Sc0.5Ti1.0P3O12,6.526429,0.26888473354047526
Li0.1053Ga0.0351Sc0.0175Ti0.0526P0.1579O0.6316,Li2.0Ga0.6667Sc0.3333Ti1.0P3O12,12.305757,0.3535165090917074
Li0.1053Ga0.0439Sc0.0088Ti0.0526P0.1579O0.6316,Li2.0Ga0.8333Sc0.1667Ti1.0P3O12,9.375982,0.4881704116650217
Li0.1053Ga0.0526Sc0.0000Ti0.0526P0.1579O0.6316,Li2.0Ga1.0Sc0.0Ti1.0P3O12,8.099321,
Li0.1130Ga0.0000Sc0.0609Ti0.0435P0.1565O0.6261,Li2.1667Ga0.0Sc1.1667Ti0.8333P3O12,6.484139,
Li0.1130Ga0.0087Sc0.0522Ti0.0435P0.1565O0.6261,Li2.1667Ga0.1667Sc1.0Ti0.8333P3O12,6.484139,0.04055341742852146
Li0.1130Ga0.0261Sc0.0348Ti0.0435P0.1565O0.6261,Li2.1667Ga0.5Sc0.6667Ti0.8333P3O12,6.526429,0.0032869511595873388
Li0.1130Ga0.0348Sc0.0261Ti0.0435P0.1565O0.6261,Li2.1667Ga0.6667Sc0.5Ti0.8333P3O12,6.526429,0.005089292475845383
Li0.1130Ga0.0522Sc0.0087Ti0.0435P0.1565O0.6261,Li2.1667Ga1.0Sc0.1667Ti0.8333P3O12,9.375982,0.06782911177527963
Li0.1130Ga0.0609Sc0.0000Ti0.0435P0.1565O0.6261,Li2.1667Ga1.1667Sc0.0Ti0.8333P3O12,6.7658024,
Li0.1207Ga0.0000Sc0.0690Ti0.0345P0.1552O0.6207,Li2.3333Ga0.0Sc1.3333Ti0.6667P3O12,6.484139,
Li0.1207Ga0.0172Sc0.0517Ti0.0345P0.1552O0.6207,Li2.3333Ga0.3333Sc1.0Ti0.6667P3O12,6.526429,0.04276418020872343
Li0.1207Ga0.0259Sc0.0431Ti0.0345P0.1552O0.6207,Li2.3333Ga0.5Sc0.8333Ti0.6667P3O12,6.526429,0.002155393709312257
Li0.1207Ga0.0431Sc0.0259Ti0.0345P0.1552O0.6207,Li2.3333Ga0.8333Sc0.5Ti0.6667P3O12,6.526429,0.00487003884162176
Li0.1207Ga0.0517Sc0.0172Ti0.0345P0.1552O0.6207,Li2.3333Ga1.0Sc0.3333Ti0.6667P3O12,12.305757,0.09510028950020913
Li0.1207Ga0.0690Sc0.0000Ti0.0345P0.1552O0.6207,Li2.3333Ga1.3333Sc0.0Ti0.6667P3O12,6.7658024,
Li0.1282Ga0.0000Sc0.0769Ti0.0256P0.1538O0.6154,Li2.5Ga0.0Sc1.5Ti0.5P3O12,6.484139,
Li0.1282Ga0.0085Sc0.0684Ti0.0256P0.1538O0.6154,Li2.5Ga0.1667Sc1.3333Ti0.5P3O12,6.484139,0.041608459127040365
Li0.1282Ga0.0171Sc0.0598Ti0.0256P0.1538O0.6154,Li2.5Ga0.3333Sc1.1667Ti0.5P3O12,6.526429,0.04551039647647225
Li0.1282Ga0.0256Sc0.0513Ti0.0256P0.1538O0.6154,Li2.5Ga0.5Sc1.0Ti0.5P3O12,6.526429,0.04847819016986831
Li0.1282Ga0.0342Sc0.0427Ti0.0256P0.1538O0.6154,Li2.5Ga0.6667Sc0.8333Ti0.5P3O12,6.526429,0.002010295266248658
Li0.1282Ga0.0427Sc0.0342Ti0.0256P0.1538O0.6154,Li2.5Ga0.8333Sc0.6667Ti0.5P3O12,6.526429,0.002941835558108983
Li0.1282Ga0.0513Sc0.0256Ti0.0256P0.1538O0.6154,Li2.5Ga1.0Sc0.5Ti0.5P3O12,6.526429,0.11191258001192016
Li0.1282Ga0.0598Sc0.0171Ti0.0256P0.1538O0.6154,Li2.5Ga1.1667Sc0.3333Ti0.5P3O12,10.672007,0.10222452494742568
Li0.1282Ga0.0684Sc0.0085Ti0.0256P0.1538O0.6154,Li2.5Ga1.3333Sc0.1667Ti0.5P3O12,8.042463,0.07653710515840899
Li0.1282Ga0.0769Sc0.0000Ti0.0256P0.1538O0.6154,Li2.5Ga1.5Sc0.0Ti0.5P3O12,6.7658024,
Li0.1356Ga0.0000Sc0.0847Ti0.0169P0.1525O0.6102,Li2.6667Ga0.0Sc1.6667Ti0.3333P3O12,6.484139,
Li0.1356Ga0.0085Sc0.0763Ti0.0169P0.1525O0.6102,Li2.6667Ga0.1667Sc1.5Ti0.3333P3O12,6.484139,0.04757707385527635
Li0.1356Ga0.0254Sc0.0593Ti0.0169P0.1525O0.6102,Li2.6667Ga0.5Sc1.1667Ti0.3333P3O12,6.526429,0.05748984040209173
Li0.1356Ga0.0339Sc0.0508Ti0.0169P0.1525O0.6102,Li2.6667Ga0.6667Sc1.0Ti0.3333P3O12,6.526429,0.06157100734317262
Li0.1356Ga0.0508Sc0.0339Ti0.0169P0.1525O0.6102,Li2.6667Ga1.0Sc0.6667Ti0.3333P3O12,6.526429,0.14363890972397683
Li0.1356Ga0.0593Sc0.0254Ti0.0169P0.1525O0.6102,Li2.6667Ga1.1667Sc0.5Ti0.3333P3O12,4.8926797,0.1325703909445055
Li0.1356Ga0.0763Sc0.0085Ti0.0169P0.1525O0.6102,Li2.6667Ga1.5Sc0.1667Ti0.3333P3O12,8.042463,0.08814333449381749
Li0.1356Ga0.0847Sc0.0000Ti0.0169P0.1525O0.6102,Li2.6667Ga1.6667Sc0.0Ti0.3333P3O12,6.7658024,
Li0.1429Ga0.0000Sc0.0924Ti0.0084P0.1513O0.6050,Li2.8333Ga0.0Sc1.8333Ti0.1667P3O12,10.380352,
Li0.1429Ga0.0168Sc0.0756Ti0.0084P0.1513O0.6050,Li2.8333Ga0.3333Sc1.5Ti0.1667P3O12,10.257967,0.07353129997140656
Li0.1429Ga0.0252Sc0.0672Ti0.0084P0.1513O0.6050,Li2.8333Ga0.5Sc1.3333Ti0.1667P3O12,10.257967,0.08073858373074114
Li0.1429Ga0.0420Sc0.0504Ti0.0084P0.1513O0.6050,Li2.8333Ga0.8333Sc1.0Ti0.1667P3O12,10.257967,0.09386025461715165
Li0.1429Ga0.0504Sc0.0420Ti0.0084P0.1513O0.6050,Li2.8333Ga1.0Sc0.8333Ti0.1667P3O12,10.257967,0.20728330376797843
Li0.1429Ga0.0672Sc0.0252Ti0.0084P0.1513O0.6050,Li2.8333Ga1.3333Sc0.5Ti0.1667P3O12,8.624217,0.18023419950558892
Li0.1429Ga0.0756Sc0.0168Ti0.0084P0.1513O0.6050,Li2.8333Ga1.5Sc0.3333Ti0.1667P3O12,14.403538,0.1570158859461927
Li0.1429Ga0.0924Sc0.0000Ti0.0084P0.1513O0.6050,Li2.8333Ga1.8333Sc0.0Ti0.1667P3O12,10.497339,
Li0.1500Ga0.0000Sc0.1000Ti0.0000P0.1500O0.6000,Li3.0Ga0.0Sc2.0Ti0.0P3O12,11.964293,
Li0.1500Ga0.0083Sc0.0917Ti0.0000P0.1500O0.6000,Li3.0Ga0.1667Sc1.8333Ti0.0P3O12,11.964293,
Li0.1500Ga0.0167Sc0.0833Ti0.0000P0.1500O0.6000,Li3.0Ga0.3333Sc1.6667Ti0.0P3O12,11.8419075,
Li0.1500Ga0.0250Sc0.0750Ti0.0000P0.1500O0.6000,Li3.0Ga0.5Sc1.5Ti0.0P3O12,11.8419075,
Li0.1500Ga0.0333Sc0.0667Ti0.0000P0.1500O0.6000,Li3.0Ga0.6667Sc1.3333Ti0.0P3O12,11.8419075,
Li0.1500Ga0.0417Sc0.0583Ti0.0000P0.1500O0.6000,Li3.0Ga0.8333Sc1.1667Ti0.0P3O12,11.8419075,
Li0.1500Ga0.0500Sc0.0500Ti0.0000P0.1500O0.6000,Li3.0Ga1.0Sc1.0Ti0.0P3O12,11.8419075,
Li0.1500Ga0.0583Sc0.0417Ti0.0000P0.1500O0.6000,Li3.0Ga1.1667Sc0.8333Ti0.0P3O12,11.8419075,
Li0.1500Ga0.0667Sc0.0333Ti0.0000P0.1500O0.6000,Li3.0Ga1.3333Sc0.6667Ti0.0P3O12,10.208159,
Li0.1500Ga0.0750Sc0.0250Ti0.0000P0.1500O0.6000,Li3.0Ga1.5Sc0.5Ti0.0P3O12,10.208159,
Li0.1500Ga0.0833Sc0.0167Ti0.0000P0.1500O0.6000,Li3.0Ga1.6667Sc0.3333Ti0.0P3O12,15.987481,
Li0.1500Ga0.0917Sc0.0083Ti0.0000P0.1500O0.6000,Li3.0Ga1.8333Sc0.1667Ti0.0P3O12,14.450514,
Li0.1500Ga0.1000Sc0.0000Ti0.0000P0.1500O0.6000,Li3.0Ga2.0Sc0.0Ti0.0P3O12,13.755412,
Li0.0556Ga0.0000Y0.0000Ti0.1111P0.1667O0.6667,Li1.0Ga0.0Y0.0Ti2.0P3O12,7.7087817,
Li0.0642Ga0.0000Y0.0092Ti0.1009P0.1651O0.6605,Li1.1667Ga0.0Y0.1667Ti1.8333P3O12,7.7087817,
Li0.0642Ga0.0092Y0.0000Ti0.1009P0.1651O0.6605,Li1.1667Ga0.1667Y0.0Ti1.8333P3O12,7.7087817,
Li0.0727Ga0.0000Y0.0182Ti0.0909P0.1636O0.6545,Li1.3333Ga0.0Y0.3333Ti1.6667P3O12,7.8326178,
Li0.0727Ga0.0182Y0.0000Ti0.0909P0.1636O0.6545,Li1.3333Ga0.3333Y0.0Ti1.6667P3O12,7.678768,
Li0.0811Ga0.0000Y0.0270Ti0.0811P0.1622O0.6486,Li1.5Ga0.0Y0.5Ti1.5P3O12,7.874641,
Li0.0811Ga0.0090Y0.0180Ti0.0811P0.1622O0.6486,Li1.5Ga0.1667Y0.3333Ti1.5P3O12,7.874641,0.17573287735767418
Li0.0811Ga0.0180Y0.0090Ti0.0811P0.1622O0.6486,Li1.5Ga0.3333Y0.1667Ti1.5P3O12,7.7207913,0.28137469030325096
Li0.0811Ga0.0270Y0.0000Ti0.0811P0.1622O0.6486,Li1.5Ga0.5Y0.0Ti1.5P3O12,7.7207913,
Li0.0893Ga0.0000Y0.0357Ti0.0714P0.1607O0.6429,Li1.6667Ga0.0Y0.6667Ti1.3333P3O12,8.253172,
Li0.0893Ga0.0089Y0.0268Ti0.0714P0.1607O0.6429,Li1.6667Ga0.1667Y0.5Ti1.3333P3O12,8.253172,0.15469685943615627
Li0.0893Ga0.0268Y0.0089Ti0.0714P0.1607O0.6429,Li1.6667Ga0.5Y0.1667Ti1.3333P3O12,8.099321,0.29895870939776426
Li0.0893Ga0.0357Y0.0000Ti0.0714P0.1607O0.6429,Li1.6667Ga0.6667Y0.0Ti1.3333P3O12,8.099321,
Li0.0973Ga0.0000Y0.0442Ti0.0619P0.1593O0.6372,Li1.8333Ga0.0Y0.8333Ti1.1667P3O12,8.253172,
Li0.0973Ga0.0177Y0.0265Ti0.0619P0.1593O0.6372,Li1.8333Ga0.3333Y0.5Ti1.1667P3O12,8.223158,0.19171999014691052