formula,original_formula,thermal_expansion,li ion conductivity
Li0.0811Cr0.0180Sb0.0090Ti0.0811P0.1622O0.6486,Li1.5Cr0.3333Sb0.1667Ti1.5P3O12,7.750805,0.005482797776763972
Li0.0811Cr0.0270Sb0.0000Ti0.0811P0.1622O0.6486,Li1.5Cr0.5Sb0.0Ti1.5P3O12,7.750805,
Li0.0893Cr0.0000Sb0.0357Ti0.0714P0.1607O0.6429,Li1.6667Cr0.0Sb0.6667Ti1.3333P3O12,9.055562,
Li0.0893Cr0.0089Sb0.0268Ti0.0714P0.1607O0.6429,Li1.6667Cr0.1667Sb0.5Ti1.3333P3O12,9.055562,0.001665436402208437
Li0.0893Cr0.0268Sb0.0089Ti0.0714P0.1607O0.6429,Li1.6667Cr0.5Sb0.1667Ti1.3333P3O12,8.129335,0.007735540727107837
Li0.0893Cr0.0357Sb0.0000Ti0.0714P0.1607O0.6429,Li1.6667Cr0.6667Sb0.0Ti1.3333P3O12,8.129335,
Li0.0973Cr0.0000Sb0.0442Ti0.0619P0.1593O0.6372,Li1.8333Cr0.0Sb0.8333Ti1.1667P3O12,9.055562,
Li0.0973Cr0.0177Sb0.0265Ti0.0619P0.1593O0.6372,Li1.8333Cr0.3333Sb0.5Ti1.1667P3O12,9.055562,0.002932921336627001
Li0.0973Cr0.0265Sb0.0177Ti0.0619P0.1593O0.6372,Li1.8333Cr0.5Sb0.3333Ti1.1667P3O12,9.072839,0.005081709855343846
Li0.0973Cr0.0442Sb0.0000Ti0.0619P0.1593O0.6372,Li1.8333Cr0.8333Sb0.0Ti1.1667P3O12,7.845156,
Li0.1053Cr0.0000Sb0.0526Ti0.0526P0.1579O0.6316,Li2.0Cr0.0Sb1.0Ti1.0P3O12,9.055562,
Li0.1053Cr0.0088Sb0.0439Ti0.0526P0.1579O0.6316,Li2.0Cr0.1667Sb0.8333Ti1.0P3O12,9.055562,0.0012866116484356108
Li0.1053Cr0.0175Sb0.0351Ti0.0526P0.1579O0.6316,Li2.0Cr0.3333Sb0.6667Ti1.0P3O12,9.055562,0.0025378985522754214
Li0.1053Cr0.0263Sb0.0263Ti0.0526P0.1579O0.6316,Li2.0Cr0.5Sb0.5Ti1.0P3O12,9.055562,0.0041451874441659166
Li0.1053Cr0.0351Sb0.0175Ti0.0526P0.1579O0.6316,Li2.0Cr0.6667Sb0.3333Ti1.0P3O12,9.072839,0.006292833557300422
Li0.1053Cr0.0439Sb0.0088Ti0.0526P0.1579O0.6316,Li2.0Cr0.8333Sb0.1667Ti1.0P3O12,7.845156,0.011029426934211318
Li0.1053Cr0.0526Sb0.0000Ti0.0526P0.1579O0.6316,Li2.0Cr1.0Sb0.0Ti1.0P3O12,7.845156,
Li0.1130Cr0.0000Sb0.0609Ti0.0435P0.1565O0.6261,Li2.1667Cr0.0Sb1.1667Ti0.8333P3O12,9.055562,
Li0.1130Cr0.0087Sb0.0522Ti0.0435P0.1565O0.6261,Li2.1667Cr0.1667Sb1.0Ti0.8333P3O12,9.055562,0.005274175985820502
Li0.1130Cr0.0261Sb0.0348Ti0.0435P0.1565O0.6261,Li2.1667Cr0.5Sb0.6667Ti0.8333P3O12,9.055562,0.0006001400387724233
Li0.1130Cr0.0348Sb0.0261Ti0.0435P0.1565O0.6261,Li2.1667Cr0.6667Sb0.5Ti0.8333P3O12,9.055562,0.0007863010851080592
Li0.1130Cr0.0522Sb0.0087Ti0.0435P0.1565O0.6261,Li2.1667Cr1.0Sb0.1667Ti0.8333P3O12,7.845156,0.03951280507397582
Li0.1130Cr0.0609Sb0.0000Ti0.0435P0.1565O0.6261,Li2.1667Cr1.1667Sb0.0Ti0.8333P3O12,13.286617,
Li0.1207Cr0.0000Sb0.0690Ti0.0345P0.1552O0.6207,Li2.3333Cr0.0Sb1.3333Ti0.6667P3O12,9.055562,
Li0.1207Cr0.0172Sb0.0517Ti0.0345P0.1552O0.6207,Li2.3333Cr0.3333Sb1.0Ti0.6667P3O12,9.055562,0.012454284834834857
Li0.1207Cr0.0259Sb0.0431Ti0.0345P0.1552O0.6207,Li2.3333Cr0.5Sb0.8333Ti0.6667P3O12,9.055562,0.0005625945270376762
Li0.1207Cr0.0431Sb0.0259Ti0.0345P0.1552O0.6207,Li2.3333Cr0.8333Sb0.5Ti0.6667P3O12,8.771385,0.0008938808637965719
Li0.1207Cr0.0517Sb0.0172Ti0.0345P0.1552O0.6207,Li2.3333Cr1.0Sb0.3333Ti0.6667P3O12,8.788662,0.0612967486581359
Li0.1207Cr0.0690Sb0.0000Ti0.0345P0.1552O0.6207,Li2.3333Cr1.3333Sb0.0Ti0.6667P3O12,13.286617,
Li0.1282Cr0.0000Sb0.0769Ti0.0256P0.1538O0.6154,Li2.5Cr0.0Sb1.5Ti0.5P3O12,9.055562,
Li0.1282Cr0.0085Sb0.0684Ti0.0256P0.1538O0.6154,Li2.5Cr0.1667Sb1.3333Ti0.5P3O12,9.055562,0.007282953699697152
Li0.1282Cr0.0171Sb0.0598Ti0.0256P0.1538O0.6154,Li2.5Cr0.3333Sb1.1667Ti0.5P3O12,9.055562,0.01472410246365784
Li0.1282Cr0.0256Sb0.0513Ti0.0256P0.1538O0.6154,Li2.5Cr0.5Sb1.0Ti0.5P3O12,9.055562,0.022721585712861234
Li0.1282Cr0.0342Sb0.0427Ti0.0256P0.1538O0.6154,Li2.5Cr0.6667Sb0.8333Ti0.5P3O12,9.055562,0.0006704485733858553
Li0.1282Cr0.0427Sb0.0342Ti0.0256P0.1538O0.6154,Li2.5Cr0.8333Sb0.6667Ti0.5P3O12,8.771385,0.0008152362695055597
Li0.1282Cr0.0513Sb0.0256Ti0.0256P0.1538O0.6154,Li2.5Cr1.0Sb0.5Ti0.5P3O12,8.771385,0.08076030529109061
Li0.1282Cr0.0598Sb0.0171Ti0.0256P0.1538O0.6154,Li2.5Cr1.1667Sb0.3333Ti0.5P3O12,8.788662,0.06519964393630275
Li0.1282Cr0.0684Sb0.0085Ti0.0256P0.1538O0.6154,Li2.5Cr1.3333Sb0.1667Ti0.5P3O12,13.286617,0.04437741093039159
Li0.1282Cr0.0769Sb0.0000Ti0.0256P0.1538O0.6154,Li2.5Cr1.5Sb0.0Ti0.5P3O12,13.286617,
Li0.1356Cr0.0000Sb0.0847Ti0.0169P0.1525O0.6102,Li2.6667Cr0.0Sb1.6667Ti0.3333P3O12,9.055562,
Li0.1356Cr0.0085Sb0.0763Ti0.0169P0.1525O0.6102,Li2.6667Cr0.1667Sb1.5Ti0.3333P3O12,9.055562,0.009189605965821029
Li0.1356Cr0.0254Sb0.0593Ti0.0169P0.1525O0.6102,Li2.6667Cr0.5Sb1.1667Ti0.3333P3O12,9.055562,0.027370970211251643
Li0.1356Cr0.0339Sb0.0508Ti0.0169P0.1525O0.6102,Li2.6667Cr0.6667Sb1.0Ti0.3333P3O12,9.055562,0.03484725849949145
Li0.1356Cr0.0508Sb0.0339Ti0.0169P0.1525O0.6102,Li2.6667Cr1.0Sb0.6667Ti0.3333P3O12,8.771385,0.09871905241480936
Li0.1356Cr0.0593Sb0.0254Ti0.0169P0.1525O0.6102,Li2.6667Cr1.1667Sb0.5Ti0.3333P3O12,8.771385,0.08651251807785569
Li0.1356Cr0.0763Sb0.0085Ti0.0169P0.1525O0.6102,Li2.6667Cr1.5Sb0.1667Ti0.3333P3O12,13.286617,0.04777121828333743
Li0.1356Cr0.0847Sb0.0000Ti0.0169P0.1525O0.6102,Li2.6667Cr1.6667Sb0.0Ti0.3333P3O12,13.699678,
Li0.1429Cr0.0000Sb0.0924Ti0.0084P0.1513O0.6050,Li2.8333Cr0.0Sb1.8333Ti0.1667P3O12,12.787092,
Li0.1429Cr0.0168Sb0.0756Ti0.0084P0.1513O0.6050,Li2.8333Cr0.3333Sb1.5Ti0.1667P3O12,12.787092,0.02464987430170157
Li0.1429Cr0.0252Sb0.0672Ti0.0084P0.1513O0.6050,Li2.8333Cr0.5Sb1.3333Ti0.1667P3O12,12.787092,0.03465579356655335
Li0.1429Cr0.0420Sb0.0504Ti0.0084P0.1513O0.6050,Li2.8333Cr0.8333Sb1.0Ti0.1667P3O12,12.502915,0.05018797465482248
Li0.1429Cr0.0504Sb0.0420Ti0.0084P0.1513O0.6050,Li2.8333Cr1.0Sb0.8333Ti0.1667P3O12,12.502915,0.12432350113252506
Li0.1429Cr0.0672Sb0.0252Ti0.0084P0.1513O0.6050,Li2.8333Cr1.3333Sb0.5Ti0.1667P3O12,17.944368,0.0982156791300755
Li0.1429Cr0.0756Sb0.0168Ti0.0084P0.1513O0.6050,Li2.8333Cr1.5Sb0.3333Ti0.1667P3O12,17.961645,0.08033880101759774
Li0.1429Cr0.0924Sb0.0000Ti0.0084P0.1513O0.6050,Li2.8333Cr1.8333Sb0.0Ti0.1667P3O12,17.431204,
Li0.1500Cr0.0000Sb0.1000Ti0.0000P0.1500O0.6000,Li3.0Cr0.0Sb2.0Ti0.0P3O12,16.133144,
Li0.1500Cr0.0083Sb0.0917Ti0.0000P0.1500O0.6000,Li3.0Cr0.1667Sb1.8333Ti0.0P3O12,16.133144,
Li0.1500Cr0.0167Sb0.0833Ti0.0000P0.1500O0.6000,Li3.0Cr0.3333Sb1.6667Ti0.0P3O12,16.133144,
Li0.1500Cr0.0250Sb0.0750Ti0.0000P0.1500O0.6000,Li3.0Cr0.5Sb1.5Ti0.0P3O12,16.133144,
Li0.1500Cr0.0333Sb0.0667Ti0.0000P0.1500O0.6000,Li3.0Cr0.6667Sb1.3333Ti0.0P3O12,16.133144,
Li0.1500Cr0.0417Sb0.0583Ti0.0000P0.1500O0.6000,Li3.0Cr0.8333Sb1.1667Ti0.0P3O12,15.848971,
Li0.1500Cr0.0500Sb0.0500Ti0.0000P0.1500O0.6000,Li3.0Cr1.0Sb1.0Ti0.0P3O12,15.848971,
Li0.1500Cr0.0583Sb0.0417Ti0.0000P0.1500O0.6000,Li3.0Cr1.1667Sb0.8333Ti0.0P3O12,15.848971,
Li0.1500Cr0.0667Sb0.0333Ti0.0000P0.1500O0.6000,Li3.0Cr1.3333Sb0.6667Ti0.0P3O12,18.41649,
Li0.1500Cr0.0750Sb0.0250Ti0.0000P0.1500O0.6000,Li3.0Cr1.5Sb0.5Ti0.0P3O12,18.41649,
Li0.1500Cr0.0833Sb0.0167Ti0.0000P0.1500O0.6000,Li3.0Cr1.6667Sb0.3333Ti0.0P3O12,18.846827,
Li0.1500Cr0.0917Sb0.0083Ti0.0000P0.1500O0.6000,Li3.0Cr1.8333Sb0.1667Ti0.0P3O12,17.903326,
Li0.1500Cr0.1000Sb0.0000Ti0.0000P0.1500O0.6000,Li3.0Cr2.0Sb0.0Ti0.0P3O12,17.903326,
Li0.0556Cr0.0000Sc0.0000Ti0.1111P0.1667O0.6667,Li1.0Cr0.0Sc0.0Ti2.0P3O12,7.7087817,
Li0.0642Cr0.0000Sc0.0092Ti0.1009P0.1651O0.6605,Li1.1667Cr0.0Sc0.1667Ti1.8333P3O12,8.985445,
Li0.0642Cr0.0092Sc0.0000Ti0.1009P0.1651O0.6605,Li1.1667Cr0.1667Sc0.0Ti1.8333P3O12,7.7087817,
Li0.0727Cr0.0000Sc0.0182Ti0.0909P0.1636O0.6545,Li1.3333Cr0.0Sc0.3333Ti1.6667P3O12,11.915219,
Li0.0727Cr0.0182Sc0.0000Ti0.0909P0.1636O0.6545,Li1.3333Cr0.3333Sc0.0Ti1.6667P3O12,7.7087817,
Li0.0811Cr0.0000Sc0.0270Ti0.0811P0.1622O0.6486,Li1.5Cr0.0Sc0.5Ti1.5P3O12,6.105611,
Li0.0811Cr0.0090Sc0.0180Ti0.0811P0.1622O0.6486,Li1.5Cr0.1667Sc0.3333Ti1.5P3O12,11.957242,0.5841563244435231
Li0.0811Cr0.0180Sc0.0090Ti0.0811P0.1622O0.6486,Li1.5Cr0.3333Sc0.1667Ti1.5P3O12,9.027468,1.1411851693398318
Li0.0811Cr0.0270Sc0.0000Ti0.0811P0.1622O0.6486,Li1.5Cr0.5Sc0.0Ti1.5P3O12,7.750805,
Li0.0893Cr0.0000Sc0.0357Ti0.0714P0.1607O0.6429,Li1.6667Cr0.0Sc0.6667Ti1.3333P3O12,6.484139,
Li0.0893Cr0.0089Sc0.0268Ti0.0714P0.1607O0.6429,Li1.6667Cr0.1667Sc0.5Ti1.3333P3O12,6.484139,0.5470062480649045
Li0.0893Cr0.0268Sc0.0089Ti0.0714P0.1607O0.6429,Li1.6667Cr0.5Sc0.1667Ti1.3333P3O12,9.405996,1.5834079787231636
Li0.0893Cr0.0357Sc0.0000Ti0.0714P0.1607O0.6429,Li1.6667Cr0.6667Sc0.0Ti1.3333P3O12,8.129335,
Li0.0973Cr0.0000Sc0.0442Ti0.0619P0.1593O0.6372,Li1.8333Cr0.0Sc0.8333Ti1.1667P3O12,6.484139,
Li0.0973Cr0.0177Sc0.0265Ti0.0619P0.1593O0.6372,Li1.8333Cr0.3333Sc0.5Ti1.1667P3O12,6.484139,0.9505962812628612
Li0.0973Cr0.0265Sc0.0177Ti0.0619P0.1593O0.6372,Li1.8333Cr0.5Sc0.3333Ti1.1667P3O12,12.335771,1.3916106155694787
Li0.0973Cr0.0442Sc0.0000Ti0.0619P0.1593O0.6372,Li1.8333Cr0.8333Sc0.0Ti1.1667P3O12,7.845156,
Li0.1053Cr0.0000Sc0.0526Ti0.0526P0.1579O0.6316,Li2.0Cr0.0Sc1.0Ti1.0P3O12,6.484139,
Li0.1053Cr0.0088Sc0.0439Ti0.0526P0.1579O0.6316,Li2.0Cr0.1667Sc0.8333Ti1.0P3O12,6.484139,0.5214102171339793
Li0.1053Cr0.0175Sc0.0351Ti0.0526P0.1579O0.6316,Li2.0Cr0.3333Sc0.6667Ti1.0P3O12,6.484139,0.9254169333706427
Li0.1053Cr0.0263Sc0.0263Ti0.0526P0.1579O0.6316,Li2.0Cr0.5Sc0.5Ti1.0P3O12,6.484139,1.3043986119852105
Li0.1053Cr0.0351Sc0.0175Ti0.0526P0.1579O0.6316,Li2.0Cr0.6667Sc0.3333Ti1.0P3O12,12.335771,1.7197272224928215
Li0.1053Cr0.0439Sc0.0088Ti0.0526P0.1579O0.6316,Li2.0Cr0.8333Sc0.1667Ti1.0P3O12,9.1218195,2.342694678300591
Li0.1053Cr0.0526Sc0.0000Ti0.0526P0.1579O0.6316,Li2.0Cr1.0Sc0.0Ti1.0P3O12,7.845156,
Li0.1130Cr0.0000Sc0.0609Ti0.0435P0.1565O0.6261,Li2.1667Cr0.0Sc1.1667Ti0.8333P3O12,6.484139,
Li0.1130Cr0.0087Sc0.0522Ti0.0435P0.1565O0.6261,Li2.1667Cr0.1667Sc1.0Ti0.8333P3O12,6.484139,0.06752564278773589
Li0.1130Cr0.0261Sc0.0348Ti0.0435P0.1565O0.6261,Li2.1667Cr0.5Sc0.6667Ti0.8333P3O12,6.484139,0.6165269138135333
Li0.1130Cr0.0348Sc0.0261Ti0.0435P0.1565O0.6261,Li2.1667Cr0.6667Sc0.5Ti0.8333P3O12,6.484139,0.8072347068303443
Li0.1130Cr0.0522Sc0.0087Ti0.0435P0.1565O0.6261,Li2.1667Cr1.0Sc0.1667Ti0.8333P3O12,9.1218195,0.1841289917227382
Li0.1130Cr0.0609Sc0.0000Ti0.0435P0.1565O0.6261,Li2.1667Cr1.1667Sc0.0Ti0.8333P3O12,13.286617,
Li0.1207Cr0.0000Sc0.0690Ti0.0345P0.1552O0.6207,Li2.3333Cr0.0Sc1.3333Ti0.6667P3O12,6.484139,
Li0.1207Cr0.0172Sc0.0517Ti0.0345P0.1552O0.6207,Li2.3333Cr0.3333Sc1.0Ti0.6667P3O12,6.484139,0.13649262496408907
Li0.1207Cr0.0259Sc0.0431Ti0.0345P0.1552O0.6207,Li2.3333Cr0.5Sc0.8333Ti0.6667P3O12,6.484139,0.5693776544351274
Li0.1207Cr0.0431Sc0.0259Ti0.0345P0.1552O0.6207,Li2.3333Cr0.8333Sc0.5Ti0.6667P3O12,6.3018246,0.9255698644137353
Li0.1207Cr0.0517Sc0.0172Ti0.0345P0.1552O0.6207,Li2.3333Cr1.0Sc0.3333Ti0.6667P3O12,11.86948,0.2965595677386446
Li0.1207Cr0.0690Sc0.0000Ti0.0345P0.1552O0.6207,Li2.3333Cr1.3333Sc0.0Ti0.6667P3O12,13.286617,
Li0.1282Cr0.0000Sc0.0769Ti0.0256P0.1538O0.6154,Li2.5Cr0.0Sc1.5Ti0.5P3O12,6.484139,
Li0.1282Cr0.0085Sc0.0684Ti0.0256P0.1538O0.6154,Li2.5Cr0.1667Sc1.3333Ti0.5P3O12,6.484139,0.0813353376669771
Li0.1282Cr0.0171Sc0.0598Ti0.0256P0.1538O0.6154,Li2.5Cr0.3333Sc1.1667Ti0.5P3O12,6.484139,0.1456728030358395
Li0.1282Cr0.0256Sc0.0513Ti0.0256P0.1538O0.6154,Li2.5Cr0.5Sc1.0Ti0.5P3O12,6.484139,0.20177318666714847
Li0.1282Cr0.0342Sc0.0427Ti0.0256P0.1538O0.6154,Li2.5Cr0.6667Sc0.8333Ti0.5P3O12,6.484139,0.6756172164948775
Li0.1282Cr0.0427Sc0.0342Ti0.0256P0.1538O0.6154,Li2.5Cr0.8333Sc0.6667Ti0.5P3O12,6.3018246,0.8370647547243032
Li0.1282Cr0.0513Sc0.0256Ti0.0256P0.1538O0.6154,Li2.5Cr1.0Sc0.5Ti0.5P3O12,6.3018246,0.38855414923401516
Li0.1282Cr0.0598Sc0.0171Ti0.0256P0.1538O0.6154,Li2.5Cr1.1667Sc0.3333Ti0.5P3O12,11.86948,0.33012827149924456
Li0.1282Cr0.0684Sc0.0085Ti0.0256P0.1538O0.6154,Li2.5Cr1.3333Sc0.1667Ti0.5P3O12,14.563276,0.22843367043996382
Li0.1282Cr0.0769Sc0.0000Ti0.0256P0.1538O0.6154,Li2.5Cr1.5Sc0.0Ti0.5P3O12,13.286617,
Li0.1356Cr0.0000Sc0.0847Ti0.0169P0.1525O0.6102,Li2.6667Cr0.0Sc1.6667Ti0.3333P3O12,6.484139,
Li0.1356Cr0.0085Sc0.0763Ti0.0169P0.1525O0.6102,Li2.6667Cr0.1667Sc1.5Ti0.3333P3O12,6.484139,0.09283126808442986
Li0.1356Cr0.0254Sc0.0593Ti0.0169P0.1525O0.6102,Li2.6667Cr0.5Sc1.1667Ti0.3333P3O12,6.484139,0.21462723367742986
Li0.1356Cr0.0339Sc0.0508Ti0.0169P0.1525O0.6102,Li2.6667Cr0.6667Sc1.0Ti0.3333P3O12,6.484139,0.2622473962802059
Li0.1356Cr0.0508Sc0.0339Ti0.0169P0.1525O0.6102,Li2.6667Cr1.0Sc0.6667Ti0.3333P3O12,6.3018246,0.48787972348428577
Li0.1356Cr0.0593Sc0.0254Ti0.0169P0.1525O0.6102,Li2.6667Cr1.1667Sc0.5Ti0.3333P3O12,6.3018246,0.4431029495939039
Li0.1356Cr0.0763Sc0.0085Ti0.0169P0.1525O0.6102,Li2.6667Cr1.5Sc0.1667Ti0.3333P3O12,14.563276,0.26436155392399513
Li0.1356Cr0.0847Sc0.0000Ti0.0169P0.1525O0.6102,Li2.6667Cr1.6667Sc0.0Ti0.3333P3O12,13.699678,
Li0.1429Cr0.0000Sc0.0924Ti0.0084P0.1513O0.6050,Li2.8333Cr0.0Sc1.8333Ti0.1667P3O12,10.380352,
Li0.1429Cr0.0168Sc0.0756Ti0.0084P0.1513O0.6050,Li2.8333Cr0.3333Sc1.5Ti0.1667P3O12,10.215678,0.17738420953476985
Li0.1429Cr0.0252Sc0.0672Ti0.0084P0.1513O0.6050,Li2.8333Cr0.5Sc1.3333Ti0.1667P3O12,10.215678,0.24139251969945238
Li0.1429Cr0.0420Sc0.0504Ti0.0084P0.1513O0.6050,Li2.8333Cr0.8333Sc1.0Ti0.1667P3O12,10.033363,0.33559703099595767
Li0.1429Cr0.0504Sc0.0420Ti0.0084P0.1513O0.6050,Li2.8333Cr1.0Sc0.8333Ti0.1667P3O12,10.033363,0.6668135433416205
Li0.1429Cr0.0672Sc0.0252Ti0.0084P0.1513O0.6050,Li2.8333Cr1.3333Sc0.5Ti0.1667P3O12,14.0857725,0.5758109162566337
Li0.1429Cr0.0756Sc0.0168Ti0.0084P0.1513O0.6050,Li2.8333Cr1.5Sc0.3333Ti0.1667P3O12,19.653418,0.4945017717849158
Li0.1429Cr0.0924Sc0.0000Ti0.0084P0.1513O0.6050,Li2.8333Cr1.8333Sc0.0Ti0.1667P3O12,17.431204,
Li0.1500Cr0.0000Sc0.1000Ti0.0000P0.1500O0.6000,Li3.0Cr0.0Sc2.0Ti0.0P3O12,11.964293,
Li0.1500Cr0.0083Sc0.0917Ti0.0000P0.1500O0.6000,Li3.0Cr0.1667Sc1.8333Ti0.0P3O12,11.964293,
Li0.1500Cr0.0167Sc0.0833Ti0.0000P0.1500O0.6000,Li3.0Cr0.3333Sc1.6667Ti0.0P3O12,11.799619,
Li0.1500Cr0.0250Sc0.0750Ti0.0000P0.1500O0.6000,Li3.0Cr0.5Sc1.5Ti0.0P3O12,11.799619,
Li0.1500Cr0.0333Sc0.0667Ti0.0000P0.1500O0.6000,Li3.0Cr0.6667Sc1.3333Ti0.0P3O12,11.799619,
Li0.1500Cr0.0417Sc0.0583Ti0.0000P0.1500O0.6000,Li3.0Cr0.8333Sc1.1667Ti0.0P3O12,11.617304,
Li0.1500Cr0.0500Sc0.0500Ti0.0000P0.1500O0.6000,Li3.0Cr1.0Sc1.0Ti0.0P3O12,11.617304,
Li0.1500Cr0.0583Sc0.0417Ti0.0000P0.1500O0.6000,Li3.0Cr1.1667Sc0.8333Ti0.0P3O12,11.617304,
Li0.1500Cr0.0667Sc0.0333Ti0.0000P0.1500O0.6000,Li3.0Cr1.3333Sc0.6667Ti0.0P3O12,14.184827,
Li0.1500Cr0.0750Sc0.0250Ti0.0000P0.1500O0.6000,Li3.0Cr1.5Sc0.5Ti0.0P3O12,14.184827,
Li0.1500Cr0.0833Sc0.0167Ti0.0000P0.1500O0.6000,Li3.0Cr1.6667Sc0.3333Ti0.0P3O12,20.165533,
Li0.1500Cr0.0917Sc0.0083Ti0.0000P0.1500O0.6000,Li3.0Cr1.8333Sc0.1667Ti0.0P3O12,18.510445,
Li0.1500Cr0.1000Sc0.0000Ti0.0000P0.1500O0.6000,Li3.0Cr2.0Sc0.0Ti0.0P3O12,17.903326,
Li0.0556Cr0.0000Y0.0000Ti0.1111P0.1667O0.6667,Li1.0Cr0.0Y0.0Ti2.0P3O12,7.7087817,
Li0.0642Cr0.0000Y0.0092Ti0.1009P0.1651O0.6605,Li1.1667Cr0.0Y0.1667Ti1.8333P3O12,7.7087817,
Li0.0642Cr0.0092Y0.0000Ti0.1009P0.1651O0.6605,Li1.1667Cr0.1667Y0.0Ti1.8333P3O12,7.7087817,
Li0.0727Cr0.0000Y0.0182Ti0.0909P0.1636O0.6545,Li1.3333Cr0.0Y0.3333Ti1.6667P3O12,7.8326178,
Li0.0727Cr0.0182Y0.0000Ti0.0909P0.1636O0.6545,Li1.3333Cr0.3333Y0.0Ti1.6667P3O12,7.7087817,
Li0.0811Cr0.0000Y0.0270Ti0.0811P0.1622O0.6486,Li1.5Cr0.0Y0.5Ti1.5P3O12,7.874641,
Li0.0811Cr0.0090Y0.0180Ti0.0811P0.1622O0.6486,Li1.5Cr0.1667Y0.3333Ti1.5P3O12,7.874641,0.3391534373217114
Li0.0811Cr0.0180Y0.0090Ti0.0811P0.1622O0.6486,Li1.5Cr0.3333Y0.1667Ti1.5P3O12,7.750805,0.7532697061639854
Li0.0811Cr0.0270Y0.0000Ti0.0811P0.1622O0.6486,Li1.5Cr0.5Y0.0Ti1.5P3O12,7.750805,
Li0.0893Cr0.0000Y0.0357Ti0.0714P0.1607O0.6429,Li1.6667Cr0.0Y0.6667Ti1.3333P3O12,8.253172,
Li0.0893Cr0.0089Y0.0268Ti0.0714P0.1607O0.6429,Li1.6667Cr0.1667Y0.5Ti1.3333P3O12,8.253172,0.30158828177796176
Li0.0893Cr0.0268Y0.0089Ti0.0714P0.1607O0.6429,Li1.6667Cr0.5Y0.1667Ti1.3333P3O12,8.129335,1.090918844980969
Li0.0893Cr0.0357Y0.0000Ti0.0714P0.1607O0.6429,Li1.6667Cr0.6667Y0.0Ti1.3333P3O12,8.129335,
Li0.0973Cr0.0000Y0.0442Ti0.0619P0.1593O0.6372,Li1.8333Cr0.0Y0.8333Ti1.1667P3O12,8.253172,
Li0.0973Cr0.0177Y0.0265Ti0.0619P0.1593O0.6372,Li1.8333Cr0.3333Y0.5Ti1.1667P3O12,8.253172,0.6054486455903512
Li0.0973Cr0.0265Y0.0177Ti0.0619P0.1593O0.6372,Li1.8333Cr0.5Y0.3333Ti1.1667P3O12,8.253172,0.9759671409445494
Li0.0973Cr0.0442Y0.0000Ti0.0619P0.1593O0.6372,Li1.8333Cr0.8333Y0.0Ti1.1667P3O12,7.845156,
Li0.1053Cr0.0000Y0.0526Ti0.0526P0.1579O0.6316,Li2.0Cr0.0Y1.0Ti1.0P3O12,8.253172,
Li0.1053Cr0.0088Y0.0439Ti0.0526P0.1579O0.6316,Li2.0Cr0.1667Y0.8333Ti1.0P3O12,8.253172,0.26935174036365583
Li0.1053Cr0.0175Y0.0351Ti0.0526P0.1579O0.6316,Li2.0Cr0.3333Y0.6667Ti1.0P3O12,8.253172,0.5687778247802437
Li0.1053Cr0.0263Y0.0263Ti0.0526P0.1579O0.6316,Li2.0Cr0.5Y0.5Ti1.0P3O12,8.253172,0.9155329412245424
Li0.1053Cr0.0351Y0.0175Ti0.0526P0.1579O0.6316,Li2.0Cr0.6667Y0.3333Ti1.0P3O12,8.253172,1.246619399606079
Li0.1053Cr0.0439Y0.0088Ti0.0526P0.1579O0.6316,Li2.0Cr0.8333Y0.1667Ti1.0P3O12,7.845156,1.6327079446350805
Li0.1053Cr0.0526Y0.0000Ti0.0526P0.1579O0.6316,Li2.0Cr1.0Y0.0Ti1.0P3O12,7.845156,
Li0.1130Cr0.0000Y0.0609Ti0.0435P0.1565O0.6261,Li2.1667Cr0.0Y1.1667Ti0.8333P3O12,7.013641,
Li0.1130Cr0.0087Y0.0522Ti0.0435P0.1565O0.6261,Li2.1667Cr0.1667Y1.0Ti0.8333P3O12,8.253172,0.014679518378122137
Li0.1130Cr0.0261Y0.0348Ti0.0435P0.1565O0.6261,Li2.1667Cr0.5Y0.6667Ti0.8333P3O12,8.253172,0.26973514045823255
Li0.1130Cr0.0348Y0.0261Ti0.0435P0.1565O0.6261,Li2.1667Cr0.6667Y0.5Ti0.8333P3O12,8.253172,0.356539239666946
Li0.1130Cr0.0522Y0.0087Ti0.0435P0.1565O0.6261,Li2.1667Cr1.0Y0.1667Ti0.8333P3O12,7.845156,0.07035512856610376
Li0.1130Cr0.0609Y0.0000Ti0.0435P0.1565O0.6261,Li2.1667Cr1.1667Y0.0Ti0.8333P3O12,13.286617,
Li0.1207Cr0.0000Y0.0690Ti0.0345P0.1552O0.6207,Li2.3333Cr0.0Y1.3333Ti0.6667P3O12,7.013641,
Li0.1207Cr0.0172Y0.0517Ti0.0345P0.1552O0.6207,Li2.3333Cr0.3333Y1.0Ti0.6667P3O12,8.253172,0.03160188177383061
Li0.1207Cr0.0259Y0.0431Ti0.0345P0.1552O0.6207,Li2.3333Cr0.5Y0.8333Ti0.6667P3O12,8.253172,0.258039210826068
Li0.1207Cr0.0431Y0.0259Ti0.0345P0.1552O0.6207,Li2.3333Cr0.8333Y0.5Ti0.6667P3O12,8.015913,0.4191569581570569
Li0.1207Cr0.0517Y0.0172Ti0.0345P0.1552O0.6207,Li2.3333Cr1.0Y0.3333Ti0.6667P3O12,8.015913,0.07638817300106501
Li0.1207Cr0.0690Y0.0000Ti0.0345P0.1552O0.6207,Li2.3333Cr1.3333Y0.0Ti0.6667P3O12,13.286617,
Li0.1282Cr0.0000Y0.0769Ti0.0256P0.1538O0.6154,Li2.5Cr0.0Y1.5Ti0.5P3O12,7.013641,
Li0.1282Cr0.0085Y0.0684Ti0.0256P0.1538O0.6154,Li2.5Cr0.1667Y1.3333Ti0.5P3O12,7.013641,0.018818159316741474
Li0.1282Cr0.0171Y0.0598Ti0.0256P0.1538O0.6154,Li2.5Cr0.3333Y1.1667Ti0.5P3O12,7.0560336,0.03467101716434614
Li0.1282Cr0.0256Y0.0513Ti0.0256P0.1538O0.6154,Li2.5Cr0.5Y1.0Ti0.5P3O12,8.253172,0.05151832636492851
Li0.1282Cr0.0342Y0.0427Ti0.0256P0.1538O0.6154,Li2.5Cr0.6667Y0.8333Ti0.5P3O12,8.253172,0.3164755935083771
Li0.1282Cr0.0427Y0.0342Ti0.0256P0.1538O0.6154,Li2.5Cr0.8333Y0.6667Ti0.5P3O12,8.015913,0.39078533447368263
Li0.1282Cr0.0513Y0.0256Ti0.0256P0.1538O0.6154,Li2.5Cr1.0Y0.5Ti0.5P3O12,8.015913,0.08280171308533528
Li0.1282Cr0.0598Y0.0171Ti0.0256P0.1538O0.6154,Li2.5Cr1.1667Y0.3333Ti0.5P3O12,8.015913,0.08007434668416634
Li0.1282Cr0.0684Y0.0085Ti0.0256P0.1538O0.6154,Li2.5Cr1.3333Y0.1667Ti0.5P3O12,13.286617,0.07708714545516092
Li0.1282Cr0.0769Y0.0000Ti0.0256P0.1538O0.6154,Li2.5Cr1.5Y0.0Ti0.5P3O12,13.286617,
Li0.1356Cr0.0000Y0.0847Ti0.0169P0.1525O0.6102,Li2.6667Cr0.0Y1.6667Ti0.3333P3O12,7.013641,
Li0.1356Cr0.0085Y0.0763Ti0.0169P0.1525O0.6102,Li2.6667Cr0.1667Y1.5Ti0.3333P3O12,7.013641,0.021861055911965306
Li0.1356Cr0.0254Y0.0593Ti0.0169P0.1525O0.6102,Li2.6667Cr0.5Y1.1667Ti0.3333P3O12,7.0560336,0.056399722869228563
Li0.1356Cr0.0339Y0.0508Ti0.0169P0.1525O0.6102,Li2.6667Cr0.6667Y1.0Ti0.3333P3O12,8.253172,0.07049825819788107
Li0.1356Cr0.0508Y0.0339Ti0.0169P0.1525O0.6102,Li2.6667Cr1.0Y0.6667Ti0.3333P3O12,8.015913,0.09323945449911376
Li0.1356Cr0.0593Y0.0254Ti0.0169P0.1525O0.6102,Li2.6667Cr1.1667Y0.5Ti0.3333P3O12,8.015913,0.08838687270309199
Li0.1356Cr0.0763Y0.0085Ti0.0169P0.1525O0.6102,Li2.6667Cr1.5Y0.1667Ti0.3333P3O12,13.286617,0.080691614121558
Li0.1356Cr0.0847Y0.0000Ti0.0169P0.1525O0.6102,Li2.6667Cr1.6667Y0.0Ti0.3333P3O12,13.699678,
Li0.1429Cr0.0000Y0.0924Ti0.0084P0.1513O0.6050,Li2.8333Cr0.0Y1.8333Ti0.1667P3O12,10.745177,
Li0.1429Cr0.0168Y0.0756Ti0.0084P0.1513O0.6050,Li2.8333Cr0.3333Y1.5Ti0.1667P3O12,10.745177,0.04884808492507267