formula,original_formula,thermal_expansion,li ion conductivity
Li0.1500In0.1000Ti0.0000P0.1500O0.6000,Li3.0In0.5In1.5Ti0.0P3O12,12.877124,
Li0.1500In0.1000Ti0.0000P0.1500O0.6000,Li3.0In0.6667In1.3333Ti0.0P3O12,12.877124,
Li0.1500In0.1000Ti0.0000P0.1500O0.6000,Li3.0In0.8333In1.1667Ti0.0P3O12,12.877124,
Li0.1500In0.1000Ti0.0000P0.1500O0.6000,Li3.0In1.0In1.0Ti0.0P3O12,12.877124,
Li0.1500In0.1000Ti0.0000P0.1500O0.6000,Li3.0In1.1667In0.8333Ti0.0P3O12,12.877124,
Li0.1500In0.1000Ti0.0000P0.1500O0.6000,Li3.0In1.3333In0.6667Ti0.0P3O12,12.877124,
Li0.1500In0.1000Ti0.0000P0.1500O0.6000,Li3.0In1.5In0.5Ti0.0P3O12,12.877124,
Li0.1500In0.1000Ti0.0000P0.1500O0.6000,Li3.0In1.6667In0.3333Ti0.0P3O12,12.877124,
Li0.1500In0.1000Ti0.0000P0.1500O0.6000,Li3.0In1.8333In0.1667Ti0.0P3O12,12.877124,
Li0.1500In0.1000Ti0.0000P0.1500O0.6000,Li3.0In2.0In0.0Ti0.0P3O12,12.877124,
Li0.0556In0.0000Mn0.0000Ti0.1111P0.1667O0.6667,Li1.0In0.0Mn0.0Ti2.0P3O12,7.7087817,
Li0.0642In0.0000Mn0.0092Ti0.1009P0.1651O0.6605,Li1.1667In0.0Mn0.1667Ti1.8333P3O12,7.7087817,
Li0.0642In0.0092Mn0.0000Ti0.1009P0.1651O0.6605,Li1.1667In0.1667Mn0.0Ti1.8333P3O12,7.7087817,
Li0.0727In0.0000Mn0.0182Ti0.0909P0.1636O0.6545,Li1.3333In0.0Mn0.3333Ti1.6667P3O12,7.7087817,
Li0.0727In0.0182Mn0.0000Ti0.0909P0.1636O0.6545,Li1.3333In0.3333Mn0.0Ti1.6667P3O12,8.017441,
Li0.0811In0.0000Mn0.0270Ti0.0811P0.1622O0.6486,Li1.5In0.0Mn0.5Ti1.5P3O12,7.750805,
Li0.0811In0.0090Mn0.0180Ti0.0811P0.1622O0.6486,Li1.5In0.1667Mn0.3333Ti1.5P3O12,7.750805,0.08279971291651833
Li0.0811In0.0180Mn0.0090Ti0.0811P0.1622O0.6486,Li1.5In0.3333Mn0.1667Ti1.5P3O12,8.036197,0.09169800876343673
Li0.0811In0.0270Mn0.0000Ti0.0811P0.1622O0.6486,Li1.5In0.5Mn0.0Ti1.5P3O12,8.31198,
Li0.0893In0.0000Mn0.0357Ti0.0714P0.1607O0.6429,Li1.6667In0.0Mn0.6667Ti1.3333P3O12,8.129335,
Li0.0893In0.0089Mn0.0268Ti0.0714P0.1607O0.6429,Li1.6667In0.1667Mn0.5Ti1.3333P3O12,8.129335,0.07893285381619981
Li0.0893In0.0268Mn0.0089Ti0.0714P0.1607O0.6429,Li1.6667In0.5Mn0.1667Ti1.3333P3O12,8.690509,0.0802620080479412
Li0.0893In0.0357Mn0.0000Ti0.0714P0.1607O0.6429,Li1.6667In0.6667Mn0.0Ti1.3333P3O12,8.690509,
Li0.0973In0.0000Mn0.0442Ti0.0619P0.1593O0.6372,Li1.8333In0.0Mn0.8333Ti1.1667P3O12,7.1790795,
Li0.0973In0.0177Mn0.0265Ti0.0619P0.1593O0.6372,Li1.8333In0.3333Mn0.5Ti1.1667P3O12,8.414724,0.0776631354338444
Li0.0973In0.0265Mn0.0177Ti0.0619P0.1593O0.6372,Li1.8333In0.5Mn0.3333Ti1.1667P3O12,8.690509,0.073432305728977
Li0.0973In0.0442Mn0.0000Ti0.0619P0.1593O0.6372,Li1.8333In0.8333Mn0.0Ti1.1667P3O12,8.690509,
Li0.1053In0.0000Mn0.0526Ti0.0526P0.1579O0.6316,Li2.0In0.0Mn1.0Ti1.0P3O12,7.5443654,
Li0.1053In0.0088Mn0.0439Ti0.0526P0.1579O0.6316,Li2.0In0.1667Mn0.8333Ti1.0P3O12,7.1790795,0.07149304306776866
Li0.1053In0.0175Mn0.0351Ti0.0526P0.1579O0.6316,Li2.0In0.3333Mn0.6667Ti1.0P3O12,8.403259,0.07296664384253634
Li0.1053In0.0263Mn0.0263Ti0.0526P0.1579O0.6316,Li2.0In0.5Mn0.5Ti1.0P3O12,8.690509,0.06613621538750947
Li0.1053In0.0351Mn0.0175Ti0.0526P0.1579O0.6316,Li2.0In0.6667Mn0.3333Ti1.0P3O12,8.690509,0.06269619882266063
Li0.1053In0.0439Mn0.0088Ti0.0526P0.1579O0.6316,Li2.0In0.8333Mn0.1667Ti1.0P3O12,8.690509,0.0624069234262368
Li0.1053In0.0526Mn0.0000Ti0.0526P0.1579O0.6316,Li2.0In1.0Mn0.0Ti1.0P3O12,8.690509,
Li0.1130In0.0000Mn0.0609Ti0.0435P0.1565O0.6261,Li2.1667In0.0Mn1.1667Ti0.8333P3O12,7.5443654,
Li0.1130In0.0087Mn0.0522Ti0.0435P0.1565O0.6261,Li2.1667In0.1667Mn1.0Ti0.8333P3O12,7.5443654,0.0663669510087714
Li0.1130In0.0261Mn0.0348Ti0.0435P0.1565O0.6261,Li2.1667In0.5Mn0.6667Ti0.8333P3O12,8.690509,2.712463569610244e-06
Li0.1130In0.0348Mn0.0261Ti0.0435P0.1565O0.6261,Li2.1667In0.6667Mn0.5Ti0.8333P3O12,8.690509,3.396686381509545e-06
Li0.1130In0.0522Mn0.0087Ti0.0435P0.1565O0.6261,Li2.1667In1.0Mn0.1667Ti0.8333P3O12,8.690509,0.010844645950606045
Li0.1130In0.0609Mn0.0000Ti0.0435P0.1565O0.6261,Li2.1667In1.1667Mn0.0Ti0.8333P3O12,8.690509,
Li0.1207In0.0000Mn0.0690Ti0.0345P0.1552O0.6207,Li2.3333In0.0Mn1.3333Ti0.6667P3O12,7.5443654,
Li0.1207In0.0172Mn0.0517Ti0.0345P0.1552O0.6207,Li2.3333In0.3333Mn1.0Ti0.6667P3O12,7.818288,0.06585412929415357
Li0.1207In0.0259Mn0.0431Ti0.0345P0.1552O0.6207,Li2.3333In0.5Mn0.8333Ti0.6667P3O12,7.75307,1.841832813698088e-06
Li0.1207In0.0431Mn0.0259Ti0.0345P0.1552O0.6207,Li2.3333In0.8333Mn0.5Ti0.6667P3O12,8.690509,2.7294743976631036e-06
Li0.1207In0.0517Mn0.0172Ti0.0345P0.1552O0.6207,Li2.3333In1.0Mn0.3333Ti0.6667P3O12,8.690509,0.017822512705928932
Li0.1207In0.0690Mn0.0000Ti0.0345P0.1552O0.6207,Li2.3333In1.3333Mn0.0Ti0.6667P3O12,8.690509,
Li0.1282In0.0000Mn0.0769Ti0.0256P0.1538O0.6154,Li2.5In0.0Mn1.5Ti0.5P3O12,7.5443654,
Li0.1282In0.0085Mn0.0684Ti0.0256P0.1538O0.6154,Li2.5In0.1667Mn1.3333Ti0.5P3O12,7.5443654,0.06685256347090508
Li0.1282In0.0171Mn0.0598Ti0.0256P0.1538O0.6154,Li2.5In0.3333Mn1.1667Ti0.5P3O12,7.818288,0.06492476031436797
Li0.1282In0.0256Mn0.0513Ti0.0256P0.1538O0.6154,Li2.5In0.5Mn1.0Ti0.5P3O12,8.118357,0.05672570315813606
Li0.1282In0.0342Mn0.0427Ti0.0256P0.1538O0.6154,Li2.5In0.6667Mn0.8333Ti0.5P3O12,7.75307,1.4547277218619385e-06
Li0.1282In0.0427Mn0.0342Ti0.0256P0.1538O0.6154,Li2.5In0.8333Mn0.6667Ti0.5P3O12,8.690509,1.7212526107826807e-06
Li0.1282In0.0513Mn0.0256Ti0.0256P0.1538O0.6154,Li2.5In1.0Mn0.5Ti0.5P3O12,8.690509,0.024355479264951317
Li0.1282In0.0598Mn0.0171Ti0.0256P0.1538O0.6154,Li2.5In1.1667Mn0.3333Ti0.5P3O12,8.690509,0.020382413128422008
Li0.1282In0.0684Mn0.0085Ti0.0256P0.1538O0.6154,Li2.5In1.3333Mn0.1667Ti0.5P3O12,8.690509,0.013708007551402819
Li0.1282In0.0769Mn0.0000Ti0.0256P0.1538O0.6154,Li2.5In1.5Mn0.0Ti0.5P3O12,5.7995377,
Li0.1356In0.0000Mn0.0847Ti0.0169P0.1525O0.6102,Li2.6667In0.0Mn1.6667Ti0.3333P3O12,7.480082,
Li0.1356In0.0085Mn0.0763Ti0.0169P0.1525O0.6102,Li2.6667In0.1667Mn1.5Ti0.3333P3O12,7.5443654,0.06908793292287133
Li0.1356In0.0254Mn0.0593Ti0.0169P0.1525O0.6102,Li2.6667In0.5Mn1.1667Ti0.3333P3O12,8.118357,0.05812236293427811
Li0.1356In0.0339Mn0.0508Ti0.0169P0.1525O0.6102,Li2.6667In0.6667Mn1.0Ti0.3333P3O12,8.118357,0.05186464468842379
Li0.1356In0.0508Mn0.0339Ti0.0169P0.1525O0.6102,Li2.6667In1.0Mn0.6667Ti0.3333P3O12,8.690509,0.03133198370466321
Li0.1356In0.0593Mn0.0254Ti0.0169P0.1525O0.6102,Li2.6667In1.1667Mn0.5Ti0.3333P3O12,8.690509,0.028234053869791574
Li0.1356In0.0763Mn0.0085Ti0.0169P0.1525O0.6102,Li2.6667In1.5Mn0.1667Ti0.3333P3O12,8.690509,0.016458766539587458
Li0.1356In0.0847Mn0.0000Ti0.0169P0.1525O0.6102,Li2.6667In1.6667Mn0.0Ti0.3333P3O12,5.7995377,
Li0.1429In0.0000Mn0.0924Ti0.0084P0.1513O0.6050,Li2.8333In0.0Mn1.8333Ti0.1667P3O12,9.358569,
Li0.1429In0.0168Mn0.0756Ti0.0084P0.1513O0.6050,Li2.8333In0.3333Mn1.5Ti0.1667P3O12,9.6967745,0.06927395337995354
Li0.1429In0.0252Mn0.0672Ti0.0084P0.1513O0.6050,Li2.8333In0.5Mn1.3333Ti0.1667P3O12,9.9968405,0.06343320661600968
Li0.1429In0.0420Mn0.0504Ti0.0084P0.1513O0.6050,Li2.8333In0.8333Mn1.0Ti0.1667P3O12,9.9968405,0.05383778800088312
Li0.1429In0.0504Mn0.0420Ti0.0084P0.1513O0.6050,Li2.8333In1.0Mn0.8333Ti0.1667P3O12,9.6315565,0.042113848842171335
Li0.1429In0.0672Mn0.0252Ti0.0084P0.1513O0.6050,Li2.8333In1.3333Mn0.5Ti0.1667P3O12,12.422039,0.03503301080233582
Li0.1429In0.0756Mn0.0168Ti0.0084P0.1513O0.6050,Li2.8333In1.5Mn0.3333Ti0.1667P3O12,12.422039,0.031135757061908957
Li0.1429In0.0924Mn0.0000Ti0.0084P0.1513O0.6050,Li2.8333In1.8333Mn0.0Ti0.1667P3O12,9.531069,
Li0.1500In0.0000Mn0.1000Ti0.0000P0.1500O0.6000,Li3.0In0.0Mn2.0Ti0.0P3O12,12.704627,
Li0.1500In0.0083Mn0.0917Ti0.0000P0.1500O0.6000,Li3.0In0.1667Mn1.8333Ti0.0P3O12,12.704627,
Li0.1500In0.0167Mn0.0833Ti0.0000P0.1500O0.6000,Li3.0In0.3333Mn1.6667Ti0.0P3O12,12.978549,
Li0.1500In0.0250Mn0.0750Ti0.0000P0.1500O0.6000,Li3.0In0.5Mn1.5Ti0.0P3O12,13.342898,
Li0.1500In0.0333Mn0.0667Ti0.0000P0.1500O0.6000,Li3.0In0.6667Mn1.3333Ti0.0P3O12,13.342898,
Li0.1500In0.0417Mn0.0583Ti0.0000P0.1500O0.6000,Li3.0In0.8333Mn1.1667Ti0.0P3O12,13.342898,
Li0.1500In0.0500Mn0.0500Ti0.0000P0.1500O0.6000,Li3.0In1.0Mn1.0Ti0.0P3O12,13.342898,
Li0.1500In0.0583Mn0.0417Ti0.0000P0.1500O0.6000,Li3.0In1.1667Mn0.8333Ti0.0P3O12,12.977613,
Li0.1500In0.0667Mn0.0333Ti0.0000P0.1500O0.6000,Li3.0In1.3333Mn0.6667Ti0.0P3O12,15.768095,
Li0.1500In0.0750Mn0.0250Ti0.0000P0.1500O0.6000,Li3.0In1.5Mn0.5Ti0.0P3O12,15.768095,
Li0.1500In0.0833Mn0.0167Ti0.0000P0.1500O0.6000,Li3.0In1.6667Mn0.3333Ti0.0P3O12,12.877124,
Li0.1500In0.0917Mn0.0083Ti0.0000P0.1500O0.6000,Li3.0In1.8333Mn0.1667Ti0.0P3O12,12.877124,
Li0.1500In0.1000Mn0.0000Ti0.0000P0.1500O0.6000,Li3.0In2.0Mn0.0Ti0.0P3O12,12.877124,
Li0.0556In0.0000Ni0.0000Ti0.1111P0.1667O0.6667,Li1.0In0.0Ni0.0Ti2.0P3O12,7.7087817,
Li0.0642In0.0000Ni0.0092Ti0.1009P0.1651O0.6605,Li1.1667In0.0Ni0.1667Ti1.8333P3O12,7.7087817,
Li0.0642In0.0092Ni0.0000Ti0.1009P0.1651O0.6605,Li1.1667In0.1667Ni0.0Ti1.8333P3O12,7.7087817,
Li0.0727In0.0000Ni0.0182Ti0.0909P0.1636O0.6545,Li1.3333In0.0Ni0.3333Ti1.6667P3O12,7.7087817,
Li0.0727In0.0182Ni0.0000Ti0.0909P0.1636O0.6545,Li1.3333In0.3333Ni0.0Ti1.6667P3O12,8.017441,
Li0.0811In0.0000Ni0.0270Ti0.0811P0.1622O0.6486,Li1.5In0.0Ni0.5Ti1.5P3O12,12.950637,
Li0.0811In0.0090Ni0.0180Ti0.0811P0.1622O0.6486,Li1.5In0.1667Ni0.3333Ti1.5P3O12,7.750805,0.053702297605015804
Li0.0811In0.0180Ni0.0090Ti0.0811P0.1622O0.6486,Li1.5In0.3333Ni0.1667Ti1.5P3O12,8.036197,0.07115177290990406
Li0.0811In0.0270Ni0.0000Ti0.0811P0.1622O0.6486,Li1.5In0.5Ni0.0Ti1.5P3O12,8.31198,
Li0.0893In0.0000Ni0.0357Ti0.0714P0.1607O0.6429,Li1.6667In0.0Ni0.6667Ti1.3333P3O12,13.329165,
Li0.0893In0.0089Ni0.0268Ti0.0714P0.1607O0.6429,Li1.6667In0.1667Ni0.5Ti1.3333P3O12,13.329165,0.05069794862860694
Li0.0893In0.0268Ni0.0089Ti0.0714P0.1607O0.6429,Li1.6667In0.5Ni0.1667Ti1.3333P3O12,8.690509,0.06593573989987853
Li0.0893In0.0357Ni0.0000Ti0.0714P0.1607O0.6429,Li1.6667In0.6667Ni0.0Ti1.3333P3O12,8.690509,
Li0.0973In0.0000Ni0.0442Ti0.0619P0.1593O0.6372,Li1.8333In0.0Ni0.8333Ti1.1667P3O12,13.373692,
Li0.0973In0.0177Ni0.0265Ti0.0619P0.1593O0.6372,Li1.8333In0.3333Ni0.5Ti1.1667P3O12,13.6145525,0.06014751927521312
Li0.0973In0.0265Ni0.0177Ti0.0619P0.1593O0.6372,Li1.8333In0.5Ni0.3333Ti1.1667P3O12,8.690509,0.059431261667125715
Li0.0973In0.0442Ni0.0000Ti0.0619P0.1593O0.6372,Li1.8333In0.8333Ni0.0Ti1.1667P3O12,8.690509,
Li0.1053In0.0000Ni0.0526Ti0.0526P0.1579O0.6316,Li2.0In0.0Ni1.0Ti1.0P3O12,13.373692,
Li0.1053In0.0088Ni0.0439Ti0.0526P0.1579O0.6316,Li2.0In0.1667Ni0.8333Ti1.0P3O12,13.373692,0.045680205606431476
Li0.1053In0.0175Ni0.0351Ti0.0526P0.1579O0.6316,Li2.0In0.3333Ni0.6667Ti1.0P3O12,13.603087,0.055813394170934005
Li0.1053In0.0263Ni0.0263Ti0.0526P0.1579O0.6316,Li2.0In0.5Ni0.5Ti1.0P3O12,13.890336,0.05444859905779056
Li0.1053In0.0351Ni0.0175Ti0.0526P0.1579O0.6316,Li2.0In0.6667Ni0.3333Ti1.0P3O12,8.690509,0.05398737046138254
Li0.1053In0.0439Ni0.0088Ti0.0526P0.1579O0.6316,Li2.0In0.8333Ni0.1667Ti1.0P3O12,8.690509,0.05506216835950312
Li0.1053In0.0526Ni0.0000Ti0.0526P0.1579O0.6316,Li2.0In1.0Ni0.0Ti1.0P3O12,8.690509,
Li0.1130In0.0000Ni0.0609Ti0.0435P0.1565O0.6261,Li2.1667In0.0Ni1.1667Ti0.8333P3O12,13.441338,
Li0.1130In0.0087Ni0.0522Ti0.0435P0.1565O0.6261,Li2.1667In0.1667Ni1.0Ti0.8333P3O12,13.373692,0.05803347158398115
Li0.1130In0.0261Ni0.0348Ti0.0435P0.1565O0.6261,Li2.1667In0.5Ni0.6667Ti0.8333P3O12,13.890336,4.755472143310099e-06
Li0.1130In0.0348Ni0.0261Ti0.0435P0.1565O0.6261,Li2.1667In0.6667Ni0.5Ti0.8333P3O12,13.890336,6.169890848496204e-06
Li0.1130In0.0522Ni0.0087Ti0.0435P0.1565O0.6261,Li2.1667In1.0Ni0.1667Ti0.8333P3O12,8.690509,0.02903106499011505
Li0.1130In0.0609Ni0.0000Ti0.0435P0.1565O0.6261,Li2.1667In1.1667Ni0.0Ti0.8333P3O12,8.690509,
Li0.1207In0.0000Ni0.0690Ti0.0345P0.1552O0.6207,Li2.3333In0.0Ni1.3333Ti0.6667P3O12,13.441338,
Li0.1207In0.0172Ni0.0517Ti0.0345P0.1552O0.6207,Li2.3333In0.3333Ni1.0Ti0.6667P3O12,13.647614,0.06097575746538293
Li0.1207In0.0259Ni0.0431Ti0.0345P0.1552O0.6207,Li2.3333In0.5Ni0.8333Ti0.6667P3O12,13.934862,3.1483231296756696e-06
Li0.1207In0.0431Ni0.0259Ti0.0345P0.1552O0.6207,Li2.3333In0.8333Ni0.5Ti0.6667P3O12,13.890336,4.97930065283352e-06
Li0.1207In0.0517Ni0.0172Ti0.0345P0.1552O0.6207,Li2.3333In1.0Ni0.3333Ti0.6667P3O12,8.690509,0.05299670710434079
Li0.1207In0.0690Ni0.0000Ti0.0345P0.1552O0.6207,Li2.3333In1.3333Ni0.0Ti0.6667P3O12,8.690509,
Li0.1282In0.0000Ni0.0769Ti0.0256P0.1538O0.6154,Li2.5In0.0Ni1.5Ti0.5P3O12,13.441338,
Li0.1282In0.0085Ni0.0684Ti0.0256P0.1538O0.6154,Li2.5In0.1667Ni1.3333Ti0.5P3O12,13.441338,0.05823171850820978
Li0.1282In0.0171Ni0.0598Ti0.0256P0.1538O0.6154,Li2.5In0.3333Ni1.1667Ti0.5P3O12,13.647614,0.06212021039908975
Li0.1282In0.0256Ni0.0513Ti0.0256P0.1538O0.6154,Li2.5In0.5Ni1.0Ti0.5P3O12,13.934862,0.05526980177645833
Li0.1282In0.0342Ni0.0427Ti0.0256P0.1538O0.6154,Li2.5In0.6667Ni0.8333Ti0.5P3O12,13.934862,2.446966400167965e-06
Li0.1282In0.0427Ni0.0342Ti0.0256P0.1538O0.6154,Li2.5In0.8333Ni0.6667Ti0.5P3O12,13.890336,2.9383556610050183e-06
Li0.1282In0.0513Ni0.0256Ti0.0256P0.1538O0.6154,Li2.5In1.0Ni0.5Ti0.5P3O12,13.890336,0.07408283575707632
Li0.1282In0.0598Ni0.0171Ti0.0256P0.1538O0.6154,Li2.5In1.1667Ni0.3333Ti0.5P3O12,8.690509,0.05669936381536201
Li0.1282In0.0684Ni0.0085Ti0.0256P0.1538O0.6154,Li2.5In1.3333Ni0.1667Ti0.5P3O12,8.690509,0.034149947864794424
Li0.1282In0.0769Ni0.0000Ti0.0256P0.1538O0.6154,Li2.5In1.5Ni0.0Ti0.5P3O12,5.7995377,
Li0.1356In0.0000Ni0.0847Ti0.0169P0.1525O0.6102,Li2.6667In0.0Ni1.6667Ti0.3333P3O12,13.38264,
Li0.1356In0.0085Ni0.0763Ti0.0169P0.1525O0.6102,Li2.6667In0.1667Ni1.5Ti0.3333P3O12,13.441338,0.06097294570196015
Li0.1356In0.0254Ni0.0593Ti0.0169P0.1525O0.6102,Li2.6667In0.5Ni1.1667Ti0.3333P3O12,13.934862,0.056899925006511844
Li0.1356In0.0339Ni0.0508Ti0.0169P0.1525O0.6102,Li2.6667In0.6667Ni1.0Ti0.3333P3O12,13.934862,0.05132534969130567
Li0.1356In0.0508Ni0.0339Ti0.0169P0.1525O0.6102,Li2.6667In1.0Ni0.6667Ti0.3333P3O12,13.890336,0.09751509450858092
Li0.1356In0.0593Ni0.0254Ti0.0169P0.1525O0.6102,Li2.6667In1.1667Ni0.5Ti0.3333P3O12,13.890336,0.07997391928030173
Li0.1356In0.0763Ni0.0085Ti0.0169P0.1525O0.6102,Li2.6667In1.5Ni0.1667Ti0.3333P3O12,8.690509,0.03851145136445969
Li0.1356In0.0847Ni0.0000Ti0.0169P0.1525O0.6102,Li2.6667In1.6667Ni0.0Ti0.3333P3O12,5.7995377,
Li0.1429In0.0000Ni0.0924Ti0.0084P0.1513O0.6050,Li2.8333In0.0Ni1.8333Ti0.1667P3O12,15.33442,
Li0.1429In0.0168Ni0.0756Ti0.0084P0.1513O0.6050,Li2.8333In0.3333Ni1.5Ti0.1667P3O12,15.66704,0.06890286589376829
Li0.1429In0.0252Ni0.0672Ti0.0084P0.1513O0.6050,Li2.8333In0.5Ni1.3333Ti0.1667P3O12,15.95429,0.06123795552192951
Li0.1429In0.0420Ni0.0504Ti0.0084P0.1513O0.6050,Li2.8333In0.8333Ni1.0Ti0.1667P3O12,15.886644,0.05375527228251925
Li0.1429In0.0504Ni0.0420Ti0.0084P0.1513O0.6050,Li2.8333In1.0Ni0.8333Ti0.1667P3O12,15.886644,0.1295773336204623
Li0.1429In0.0672Ni0.0252Ti0.0084P0.1513O0.6050,Li2.8333In1.3333Ni0.5Ti0.1667P3O12,15.842115,0.0964124777179361
Li0.1429In0.0756Ni0.0168Ti0.0084P0.1513O0.6050,Li2.8333In1.5Ni0.3333Ti0.1667P3O12,12.422039,0.07412612113607082
Li0.1429In0.0924Ni0.0000Ti0.0084P0.1513O0.6050,Li2.8333In1.8333Ni0.0Ti0.1667P3O12,9.531069,
Li0.1500In0.0000Ni0.1000Ti0.0000P0.1500O0.6000,Li3.0In0.0Ni2.0Ti0.0P3O12,18.680473,
Li0.1500In0.0083Ni0.0917Ti0.0000P0.1500O0.6000,Li3.0In0.1667Ni1.8333Ti0.0P3O12,18.680473,
Li0.1500In0.0167Ni0.0833Ti0.0000P0.1500O0.6000,Li3.0In0.3333Ni1.6667Ti0.0P3O12,18.954395,
Li0.1500In0.0250Ni0.0750Ti0.0000P0.1500O0.6000,Li3.0In0.5Ni1.5Ti0.0P3O12,19.30034,
Li0.1500In0.0333Ni0.0667Ti0.0000P0.1500O0.6000,Li3.0In0.6667Ni1.3333Ti0.0P3O12,19.30034,
Li0.1500In0.0417Ni0.0583Ti0.0000P0.1500O0.6000,Li3.0In0.8333Ni1.1667Ti0.0P3O12,19.232695,
Li0.1500In0.0500Ni0.0500Ti0.0000P0.1500O0.6000,Li3.0In1.0Ni1.0Ti0.0P3O12,19.232695,
Li0.1500In0.0583Ni0.0417Ti0.0000P0.1500O0.6000,Li3.0In1.1667Ni0.8333Ti0.0P3O12,19.232695,
Li0.1500In0.0667Ni0.0333Ti0.0000P0.1500O0.6000,Li3.0In1.3333Ni0.6667Ti0.0P3O12,19.188171,
Li0.1500In0.0750Ni0.0250Ti0.0000P0.1500O0.6000,Li3.0In1.5Ni0.5Ti0.0P3O12,19.188171,
Li0.1500In0.0833Ni0.0167Ti0.0000P0.1500O0.6000,Li3.0In1.6667Ni0.3333Ti0.0P3O12,12.877124,
Li0.1500In0.0917Ni0.0083Ti0.0000P0.1500O0.6000,Li3.0In1.8333Ni0.1667Ti0.0P3O12,12.877124,
Li0.1500In0.1000Ni0.0000Ti0.0000P0.1500O0.6000,Li3.0In2.0Ni0.0Ti0.0P3O12,12.877124,
Li0.0556In0.0000Sb0.0000Ti0.1111P0.1667O0.6667,Li1.0In0.0Sb0.0Ti2.0P3O12,7.7087817,
Li0.0642In0.0000Sb0.0092Ti0.1009P0.1651O0.6605,Li1.1667In0.0Sb0.1667Ti1.8333P3O12,7.7087817,
Li0.0642In0.0092Sb0.0000Ti0.1009P0.1651O0.6605,Li1.1667In0.1667Sb0.0Ti1.8333P3O12,7.7087817,
Li0.0727In0.0000Sb0.0182Ti0.0909P0.1636O0.6545,Li1.3333In0.0Sb0.3333Ti1.6667P3O12,8.6522875,
Li0.0727In0.0182Sb0.0000Ti0.0909P0.1636O0.6545,Li1.3333In0.3333Sb0.0Ti1.6667P3O12,8.017441,
Li0.0811In0.0000Sb0.0270Ti0.0811P0.1622O0.6486,Li1.5In0.0Sb0.5Ti1.5P3O12,8.677033,
Li0.0811In0.0090Sb0.0180Ti0.0811P0.1622O0.6486,Li1.5In0.1667Sb0.3333Ti1.5P3O12,8.69431,0.016837157250321973
Li0.0811In0.0180Sb0.0090Ti0.0811P0.1622O0.6486,Li1.5In0.3333Sb0.1667Ti1.5P3O12,8.036197,0.01888086804313263
Li0.0811In0.0270Sb0.0000Ti0.0811P0.1622O0.6486,Li1.5In0.5Sb0.0Ti1.5P3O12,8.31198,
Li0.0893In0.0000Sb0.0357Ti0.0714P0.1607O0.6429,Li1.6667In0.0Sb0.6667Ti1.3333P3O12,9.055562,
Li0.0893In0.0089Sb0.0268Ti0.0714P0.1607O0.6429,Li1.6667In0.1667Sb0.5Ti1.3333P3O12,9.055562,0.015146362338064523
Li0.0893In0.0268Sb0.0089Ti0.0714P0.1607O0.6429,Li1.6667In0.5Sb0.1667Ti1.3333P3O12,8.690509,0.01557563477195893
Li0.0893In0.0357Sb0.0000Ti0.0714P0.1607O0.6429,Li1.6667In0.6667Sb0.0Ti1.3333P3O12,8.690509,
Li0.0973In0.0000Sb0.0442Ti0.0619P0.1593O0.6372,Li1.8333In0.0Sb0.8333Ti1.1667P3O12,9.055562,
Li0.0973In0.0177Sb0.0265Ti0.0619P0.1593O0.6372,Li1.8333In0.3333Sb0.5Ti1.1667P3O12,9.340951,0.01273219322810225
Li0.0973In0.0265Sb0.0177Ti0.0619P0.1593O0.6372,Li1.8333In0.5Sb0.3333Ti1.1667P3O12,9.634011,0.011821455099007616
Li0.0973In0.0442Sb0.0000Ti0.0619P0.1593O0.6372,Li1.8333In0.8333Sb0.0Ti1.1667P3O12,8.690509,
Li0.1053In0.0000Sb0.0526Ti0.0526P0.1579O0.6316,Li2.0In0.0Sb1.0Ti1.0P3O12,9.055562,
Li0.1053In0.0088Sb0.0439Ti0.0526P0.1579O0.6316,Li2.0In0.1667Sb0.8333Ti1.0P3O12,9.055562,0.01301604570714663
Li0.1053In0.0175Sb0.0351Ti0.0526P0.1579O0.6316,Li2.0In0.3333Sb0.6667Ti1.0P3O12,9.329486,0.011434446346397616
Li0.1053In0.0263Sb0.0263Ti0.0526P0.1579O0.6316,Li2.0In0.5Sb0.5Ti1.0P3O12,9.6167345,0.010089862989932152
Li0.1053In0.0351Sb0.0175Ti0.0526P0.1579O0.6316,Li2.0In0.6667Sb0.3333Ti1.0P3O12,9.634011,0.009260771061480969
Li0.1053In0.0439Sb0.0088Ti0.0526P0.1579O0.6316,Li2.0In0.8333Sb0.1667Ti1.0P3O12,8.690509,0.010892091524745523
Li0.1053In0.0526Sb0.0000Ti0.0526P0.1579O0.6316,Li2.0In1.0Sb0.0Ti1.0P3O12,8.690509,
Li0.1130In0.0000Sb0.0609Ti0.0435P0.1565O0.6261,Li2.1667In0.0Sb1.1667Ti0.8333P3O12,9.055562,
Li0.1130In0.0087Sb0.0522Ti0.0435P0.1565O0.6261,Li2.1667In0.1667Sb1.0Ti0.8333P3O12,9.055562,0.0194249807012102
Li0.1130In0.0261Sb0.0348Ti0.0435P0.1565O0.6261,Li2.1667In0.5Sb0.6667Ti0.8333P3O12,9.6167345,1.1275862542507643e-07
Li0.1130In0.0348Sb0.0261Ti0.0435P0.1565O0.6261,Li2.1667In0.6667Sb0.5Ti0.8333P3O12,9.6167345,1.2661097465133933e-07
Li0.1130In0.0522Sb0.0087Ti0.0435P0.1565O0.6261,Li2.1667In1.0Sb0.1667Ti0.8333P3O12,8.690509,0.002650794635353698
Li0.1130In0.0609Sb0.0000Ti0.0435P0.1565O0.6261,Li2.1667In1.1667Sb0.0Ti0.8333P3O12,8.690509,
Li0.1207In0.0000Sb0.0690Ti0.0345P0.1552O0.6207,Li2.3333In0.0Sb1.3333Ti0.6667P3O12,9.055562,
Li0.1207In0.0172Sb0.0517Ti0.0345P0.1552O0.6207,Li2.3333In0.3333Sb1.0Ti0.6667P3O12,9.329486,0.025149750212647766
Li0.1207In0.0259Sb0.0431Ti0.0345P0.1552O0.6207,Li2.3333In0.5Sb0.8333Ti0.6667P3O12,9.6167345,7.819310337266054e-08
Li0.1207In0.0431Sb0.0259Ti0.0345P0.1552O0.6207,Li2.3333In0.8333Sb0.5Ti0.6667P3O12,9.6167345,9.211972015989777e-08
Li0.1207In0.0517Sb0.0172Ti0.0345P0.1552O0.6207,Li2.3333In1.0Sb0.3333Ti0.6667P3O12,9.634011,0.004506804040451192
Li0.1207In0.0690Sb0.0000Ti0.0345P0.1552O0.6207,Li2.3333In1.3333Sb0.0Ti0.6667P3O12,8.690509,
Li0.1282In0.0000Sb0.0769Ti0.0256P0.1538O0.6154,Li2.5In0.0Sb1.5Ti0.5P3O12,9.055562,
Li0.1282In0.0085Sb0.0684Ti0.0256P0.1538O0.6154,Li2.5In0.1667Sb1.3333Ti0.5P3O12,9.055562,0.022743749741802488
Li0.1282In0.0171Sb0.0598Ti0.0256P0.1538O0.6154,Li2.5In0.3333Sb1.1667Ti0.5P3O12,9.329486,0.02724617834183998
Li0.1282In0.0256Sb0.0513Ti0.0256P0.1538O0.6154,Li2.5In0.5Sb1.0Ti0.5P3O12,9.6167345,0.029972285168507435