formula,original_formula,thermal_expansion,li ion conductivity
Li0.1500Mn0.1000Ti0.0000P0.1500O0.6000,Li3.0Mn1.1667Mn0.8333Ti0.0P3O12,12.704627,
Li0.1500Mn0.1000Ti0.0000P0.1500O0.6000,Li3.0Mn1.3333Mn0.6667Ti0.0P3O12,12.704627,
Li0.1500Mn0.1000Ti0.0000P0.1500O0.6000,Li3.0Mn1.5Mn0.5Ti0.0P3O12,12.704627,
Li0.1500Mn0.1000Ti0.0000P0.1500O0.6000,Li3.0Mn1.6667Mn0.3333Ti0.0P3O12,12.704627,
Li0.1500Mn0.1000Ti0.0000P0.1500O0.6000,Li3.0Mn1.8333Mn0.1667Ti0.0P3O12,12.704627,
Li0.1500Mn0.1000Ti0.0000P0.1500O0.6000,Li3.0Mn2.0Mn0.0Ti0.0P3O12,12.704627,
Li0.0556Mn0.0000Ni0.0000Ti0.1111P0.1667O0.6667,Li1.0Mn0.0Ni0.0Ti2.0P3O12,7.7087817,
Li0.0642Mn0.0000Ni0.0092Ti0.1009P0.1651O0.6605,Li1.1667Mn0.0Ni0.1667Ti1.8333P3O12,7.7087817,
Li0.0642Mn0.0092Ni0.0000Ti0.1009P0.1651O0.6605,Li1.1667Mn0.1667Ni0.0Ti1.8333P3O12,7.7087817,
Li0.0727Mn0.0000Ni0.0182Ti0.0909P0.1636O0.6545,Li1.3333Mn0.0Ni0.3333Ti1.6667P3O12,7.7087817,
Li0.0727Mn0.0182Ni0.0000Ti0.0909P0.1636O0.6545,Li1.3333Mn0.3333Ni0.0Ti1.6667P3O12,7.7087817,
Li0.0811Mn0.0000Ni0.0270Ti0.0811P0.1622O0.6486,Li1.5Mn0.0Ni0.5Ti1.5P3O12,12.950637,
Li0.0811Mn0.0090Ni0.0180Ti0.0811P0.1622O0.6486,Li1.5Mn0.1667Ni0.3333Ti1.5P3O12,7.750805,0.09026089779754545
Li0.0811Mn0.0180Ni0.0090Ti0.0811P0.1622O0.6486,Li1.5Mn0.3333Ni0.1667Ti1.5P3O12,7.750805,0.1689570386740168
Li0.0811Mn0.0270Ni0.0000Ti0.0811P0.1622O0.6486,Li1.5Mn0.5Ni0.0Ti1.5P3O12,7.750805,
Li0.0893Mn0.0000Ni0.0357Ti0.0714P0.1607O0.6429,Li1.6667Mn0.0Ni0.6667Ti1.3333P3O12,13.329165,
Li0.0893Mn0.0089Ni0.0268Ti0.0714P0.1607O0.6429,Li1.6667Mn0.1667Ni0.5Ti1.3333P3O12,13.329165,0.0777798735927543
Li0.0893Mn0.0268Ni0.0089Ti0.0714P0.1607O0.6429,Li1.6667Mn0.5Ni0.1667Ti1.3333P3O12,8.129335,0.19670390876191993
Li0.0893Mn0.0357Ni0.0000Ti0.0714P0.1607O0.6429,Li1.6667Mn0.6667Ni0.0Ti1.3333P3O12,8.129335,
Li0.0973Mn0.0000Ni0.0442Ti0.0619P0.1593O0.6372,Li1.8333Mn0.0Ni0.8333Ti1.1667P3O12,13.373692,
Li0.0973Mn0.0177Ni0.0265Ti0.0619P0.1593O0.6372,Li1.8333Mn0.3333Ni0.5Ti1.1667P3O12,13.329165,0.11913701237462525
Li0.0973Mn0.0265Ni0.0177Ti0.0619P0.1593O0.6372,Li1.8333Mn0.5Ni0.3333Ti1.1667P3O12,8.129335,0.15699968136572062
Li0.0973Mn0.0442Ni0.0000Ti0.0619P0.1593O0.6372,Li1.8333Mn0.8333Ni0.0Ti1.1667P3O12,7.1790795,
Li0.1053Mn0.0000Ni0.0526Ti0.0526P0.1579O0.6316,Li2.0Mn0.0Ni1.0Ti1.0P3O12,13.373692,
Li0.1053Mn0.0088Ni0.0439Ti0.0526P0.1579O0.6316,Li2.0Mn0.1667Ni0.8333Ti1.0P3O12,13.373692,0.06352534670552182
Li0.1053Mn0.0175Ni0.0351Ti0.0526P0.1579O0.6316,Li2.0Mn0.3333Ni0.6667Ti1.0P3O12,13.329165,0.10681439377634878
Li0.1053Mn0.0263Ni0.0263Ti0.0526P0.1579O0.6316,Li2.0Mn0.5Ni0.5Ti1.0P3O12,13.329165,0.13799845367685726
Li0.1053Mn0.0351Ni0.0175Ti0.0526P0.1579O0.6316,Li2.0Mn0.6667Ni0.3333Ti1.0P3O12,8.129335,0.17204921086861238
Li0.1053Mn0.0439Ni0.0088Ti0.0526P0.1579O0.6316,Li2.0Mn0.8333Ni0.1667Ti1.0P3O12,7.1790795,0.23473008282024724
Li0.1053Mn0.0526Ni0.0000Ti0.0526P0.1579O0.6316,Li2.0Mn1.0Ni0.0Ti1.0P3O12,7.5443654,
Li0.1130Mn0.0000Ni0.0609Ti0.0435P0.1565O0.6261,Li2.1667Mn0.0Ni1.1667Ti0.8333P3O12,13.441338,
Li0.1130Mn0.0087Ni0.0522Ti0.0435P0.1565O0.6261,Li2.1667Mn0.1667Ni1.0Ti0.8333P3O12,13.373692,0.11136204409779188
Li0.1130Mn0.0261Ni0.0348Ti0.0435P0.1565O0.6261,Li2.1667Mn0.5Ni0.6667Ti0.8333P3O12,13.329165,0.022419503576149698
Li0.1130Mn0.0348Ni0.0261Ti0.0435P0.1565O0.6261,Li2.1667Mn0.6667Ni0.5Ti0.8333P3O12,13.329165,0.02649296172191887
Li0.1130Mn0.0522Ni0.0087Ti0.0435P0.1565O0.6261,Li2.1667Mn1.0Ni0.1667Ti0.8333P3O12,7.5443654,0.30991061224065497
Li0.1130Mn0.0609Ni0.0000Ti0.0435P0.1565O0.6261,Li2.1667Mn1.1667Ni0.0Ti0.8333P3O12,7.5443654,
Li0.1207Mn0.0000Ni0.0690Ti0.0345P0.1552O0.6207,Li2.3333Mn0.0Ni1.3333Ti0.6667P3O12,13.441338,
Li0.1207Mn0.0172Ni0.0517Ti0.0345P0.1552O0.6207,Li2.3333Mn0.3333Ni1.0Ti0.6667P3O12,13.373692,0.19626090855391204
Li0.1207Mn0.0259Ni0.0431Ti0.0345P0.1552O0.6207,Li2.3333Mn0.5Ni0.8333Ti0.6667P3O12,13.373692,0.02067944519632902
Li0.1207Mn0.0431Ni0.0259Ti0.0345P0.1552O0.6207,Li2.3333Mn0.8333Ni0.5Ti0.6667P3O12,12.378912,0.027486614151790215
Li0.1207Mn0.0517Ni0.0172Ti0.0345P0.1552O0.6207,Li2.3333Mn1.0Ni0.3333Ti0.6667P3O12,7.5443654,0.57363137602804
Li0.1207Mn0.0690Ni0.0000Ti0.0345P0.1552O0.6207,Li2.3333Mn1.3333Ni0.0Ti0.6667P3O12,7.5443654,
Li0.1282Mn0.0000Ni0.0769Ti0.0256P0.1538O0.6154,Li2.5Mn0.0Ni1.5Ti0.5P3O12,13.441338,
Li0.1282Mn0.0085Ni0.0684Ti0.0256P0.1538O0.6154,Li2.5Mn0.1667Ni1.3333Ti0.5P3O12,13.441338,0.13739175528096792
Li0.1282Mn0.0171Ni0.0598Ti0.0256P0.1538O0.6154,Li2.5Mn0.3333Ni1.1667Ti0.5P3O12,13.373692,0.2168790698619046
Li0.1282Mn0.0256Ni0.0513Ti0.0256P0.1538O0.6154,Li2.5Mn0.5Ni1.0Ti0.5P3O12,13.373692,0.264330933073372
Li0.1282Mn0.0342Ni0.0427Ti0.0256P0.1538O0.6154,Li2.5Mn0.6667Ni0.8333Ti0.5P3O12,13.373692,0.021268079302336516
Li0.1282Mn0.0427Ni0.0342Ti0.0256P0.1538O0.6154,Li2.5Mn0.8333Ni0.6667Ti0.5P3O12,12.378912,0.024210227529922915
Li0.1282Mn0.0513Ni0.0256Ti0.0256P0.1538O0.6154,Li2.5Mn1.0Ni0.5Ti0.5P3O12,12.744197,0.7938353675200431
Li0.1282Mn0.0598Ni0.0171Ti0.0256P0.1538O0.6154,Li2.5Mn1.1667Ni0.3333Ti0.5P3O12,7.5443654,0.6060555406930767
Li0.1282Mn0.0684Ni0.0085Ti0.0256P0.1538O0.6154,Li2.5Mn1.3333Ni0.1667Ti0.5P3O12,7.5443654,0.35907019537129964
Li0.1282Mn0.0769Ni0.0000Ti0.0256P0.1538O0.6154,Li2.5Mn1.5Ni0.0Ti0.5P3O12,7.5443654,
Li0.1356Mn0.0000Ni0.0847Ti0.0169P0.1525O0.6102,Li2.6667Mn0.0Ni1.6667Ti0.3333P3O12,13.38264,
Li0.1356Mn0.0085Ni0.0763Ti0.0169P0.1525O0.6102,Li2.6667Mn0.1667Ni1.5Ti0.3333P3O12,13.441338,0.16478593365783478
Li0.1356Mn0.0254Ni0.0593Ti0.0169P0.1525O0.6102,Li2.6667Mn0.5Ni1.1667Ti0.3333P3O12,13.373692,0.29999858548870384
Li0.1356Mn0.0339Ni0.0508Ti0.0169P0.1525O0.6102,Li2.6667Mn0.6667Ni1.0Ti0.3333P3O12,13.373692,0.33492101446323347
Li0.1356Mn0.0508Ni0.0339Ti0.0169P0.1525O0.6102,Li2.6667Mn1.0Ni0.6667Ti0.3333P3O12,12.744197,0.9926221726460265
Li0.1356Mn0.0593Ni0.0254Ti0.0169P0.1525O0.6102,Li2.6667Mn1.1667Ni0.5Ti0.3333P3O12,12.744197,0.8473273660494631
Li0.1356Mn0.0763Ni0.0085Ti0.0169P0.1525O0.6102,Li2.6667Mn1.5Ni0.1667Ti0.3333P3O12,7.5443654,0.40680135516019017
Li0.1356Mn0.0847Ni0.0000Ti0.0169P0.1525O0.6102,Li2.6667Mn1.6667Ni0.0Ti0.3333P3O12,7.480082,
Li0.1429Mn0.0000Ni0.0924Ti0.0084P0.1513O0.6050,Li2.8333Mn0.0Ni1.8333Ti0.1667P3O12,15.33442,
Li0.1429Mn0.0168Ni0.0756Ti0.0084P0.1513O0.6050,Li2.8333Mn0.3333Ni1.5Ti0.1667P3O12,15.393118,0.3198281367713554
Li0.1429Mn0.0252Ni0.0672Ti0.0084P0.1513O0.6050,Li2.8333Mn0.5Ni1.3333Ti0.1667P3O12,15.393118,0.3753543324622227
Li0.1429Mn0.0420Ni0.0504Ti0.0084P0.1513O0.6050,Li2.8333Mn0.8333Ni1.0Ti0.1667P3O12,12.522171,0.43447898878482755
Li0.1429Mn0.0504Ni0.0420Ti0.0084P0.1513O0.6050,Li2.8333Mn1.0Ni0.8333Ti0.1667P3O12,12.887455,1.2053160536931447
Li0.1429Mn0.0672Ni0.0252Ti0.0084P0.1513O0.6050,Li2.8333Mn1.3333Ni0.5Ti0.1667P3O12,12.842929,0.9513830462989753
Li0.1429Mn0.0756Ni0.0168Ti0.0084P0.1513O0.6050,Li2.8333Mn1.5Ni0.3333Ti0.1667P3O12,9.4228525,0.7600409007834433
Li0.1429Mn0.0924Ni0.0000Ti0.0084P0.1513O0.6050,Li2.8333Mn1.8333Ni0.0Ti0.1667P3O12,9.358569,
Li0.1500Mn0.0000Ni0.1000Ti0.0000P0.1500O0.6000,Li3.0Mn0.0Ni2.0Ti0.0P3O12,18.680473,
Li0.1500Mn0.0083Ni0.0917Ti0.0000P0.1500O0.6000,Li3.0Mn0.1667Ni1.8333Ti0.0P3O12,18.680473,
Li0.1500Mn0.0167Ni0.0833Ti0.0000P0.1500O0.6000,Li3.0Mn0.3333Ni1.6667Ti0.0P3O12,18.680473,
Li0.1500Mn0.0250Ni0.0750Ti0.0000P0.1500O0.6000,Li3.0Mn0.5Ni1.5Ti0.0P3O12,18.739172,
Li0.1500Mn0.0333Ni0.0667Ti0.0000P0.1500O0.6000,Li3.0Mn0.6667Ni1.3333Ti0.0P3O12,18.739172,
Li0.1500Mn0.0417Ni0.0583Ti0.0000P0.1500O0.6000,Li3.0Mn0.8333Ni1.1667Ti0.0P3O12,15.86823,
Li0.1500Mn0.0500Ni0.0500Ti0.0000P0.1500O0.6000,Li3.0Mn1.0Ni1.0Ti0.0P3O12,16.233511,
Li0.1500Mn0.0583Ni0.0417Ti0.0000P0.1500O0.6000,Li3.0Mn1.1667Ni0.8333Ti0.0P3O12,16.233511,
Li0.1500Mn0.0667Ni0.0333Ti0.0000P0.1500O0.6000,Li3.0Mn1.3333Ni0.6667Ti0.0P3O12,16.188984,
Li0.1500Mn0.0750Ni0.0250Ti0.0000P0.1500O0.6000,Li3.0Mn1.5Ni0.5Ti0.0P3O12,16.188984,
Li0.1500Mn0.0833Ni0.0167Ti0.0000P0.1500O0.6000,Li3.0Mn1.6667Ni0.3333Ti0.0P3O12,12.704627,
Li0.1500Mn0.0917Ni0.0083Ti0.0000P0.1500O0.6000,Li3.0Mn1.8333Ni0.1667Ti0.0P3O12,12.704627,
Li0.1500Mn0.1000Ni0.0000Ti0.0000P0.1500O0.6000,Li3.0Mn2.0Ni0.0Ti0.0P3O12,12.704627,
Li0.0556Mn0.0000Sb0.0000Ti0.1111P0.1667O0.6667,Li1.0Mn0.0Sb0.0Ti2.0P3O12,7.7087817,
Li0.0642Mn0.0000Sb0.0092Ti0.1009P0.1651O0.6605,Li1.1667Mn0.0Sb0.1667Ti1.8333P3O12,7.7087817,
Li0.0642Mn0.0092Sb0.0000Ti0.1009P0.1651O0.6605,Li1.1667Mn0.1667Sb0.0Ti1.8333P3O12,7.7087817,
Li0.0727Mn0.0000Sb0.0182Ti0.0909P0.1636O0.6545,Li1.3333Mn0.0Sb0.3333Ti1.6667P3O12,8.6522875,
Li0.0727Mn0.0182Sb0.0000Ti0.0909P0.1636O0.6545,Li1.3333Mn0.3333Sb0.0Ti1.6667P3O12,7.7087817,
Li0.0811Mn0.0000Sb0.0270Ti0.0811P0.1622O0.6486,Li1.5Mn0.0Sb0.5Ti1.5P3O12,8.677033,
Li0.0811Mn0.0090Sb0.0180Ti0.0811P0.1622O0.6486,Li1.5Mn0.1667Sb0.3333Ti1.5P3O12,8.69431,0.00346017278508873
Li0.0811Mn0.0180Sb0.0090Ti0.0811P0.1622O0.6486,Li1.5Mn0.3333Sb0.1667Ti1.5P3O12,7.750805,0.00710850101882029
Li0.0811Mn0.0270Sb0.0000Ti0.0811P0.1622O0.6486,Li1.5Mn0.5Sb0.0Ti1.5P3O12,7.750805,
Li0.0893Mn0.0000Sb0.0357Ti0.0714P0.1607O0.6429,Li1.6667Mn0.0Sb0.6667Ti1.3333P3O12,9.055562,
Li0.0893Mn0.0089Sb0.0268Ti0.0714P0.1607O0.6429,Li1.6667Mn0.1667Sb0.5Ti1.3333P3O12,9.055562,0.0028670144775044715
Li0.0893Mn0.0268Sb0.0089Ti0.0714P0.1607O0.6429,Li1.6667Mn0.5Sb0.1667Ti1.3333P3O12,8.129335,0.008307015828747804
Li0.0893Mn0.0357Sb0.0000Ti0.0714P0.1607O0.6429,Li1.6667Mn0.6667Sb0.0Ti1.3333P3O12,8.129335,
Li0.0973Mn0.0000Sb0.0442Ti0.0619P0.1593O0.6372,Li1.8333Mn0.0Sb0.8333Ti1.1667P3O12,9.055562,
Li0.0973Mn0.0177Sb0.0265Ti0.0619P0.1593O0.6372,Li1.8333Mn0.3333Sb0.5Ti1.1667P3O12,9.055562,0.003860954796527819
Li0.0973Mn0.0265Sb0.0177Ti0.0619P0.1593O0.6372,Li1.8333Mn0.5Sb0.3333Ti1.1667P3O12,9.072839,0.005381089891151102
Li0.0973Mn0.0442Sb0.0000Ti0.0619P0.1593O0.6372,Li1.8333Mn0.8333Sb0.0Ti1.1667P3O12,7.1790795,
Li0.1053Mn0.0000Sb0.0526Ti0.0526P0.1579O0.6316,Li2.0Mn0.0Sb1.0Ti1.0P3O12,9.055562,
Li0.1053Mn0.0088Sb0.0439Ti0.0526P0.1579O0.6316,Li2.0Mn0.1667Sb0.8333Ti1.0P3O12,9.055562,0.0023314658095444007
Li0.1053Mn0.0175Sb0.0351Ti0.0526P0.1579O0.6316,Li2.0Mn0.3333Sb0.6667Ti1.0P3O12,9.055562,0.0033757545135214453
Li0.1053Mn0.0263Sb0.0263Ti0.0526P0.1579O0.6316,Li2.0Mn0.5Sb0.5Ti1.0P3O12,9.055562,0.004441694413675479
Li0.1053Mn0.0351Sb0.0175Ti0.0526P0.1579O0.6316,Li2.0Mn0.6667Sb0.3333Ti1.0P3O12,9.072839,0.006019310381621509
Li0.1053Mn0.0439Sb0.0088Ti0.0526P0.1579O0.6316,Li2.0Mn0.8333Sb0.1667Ti1.0P3O12,7.1790795,0.010381341341372497
Li0.1053Mn0.0526Sb0.0000Ti0.0526P0.1579O0.6316,Li2.0Mn1.0Sb0.0Ti1.0P3O12,7.5443654,
Li0.1130Mn0.0000Sb0.0609Ti0.0435P0.1565O0.6261,Li2.1667Mn0.0Sb1.1667Ti0.8333P3O12,9.055562,
Li0.1130Mn0.0087Sb0.0522Ti0.0435P0.1565O0.6261,Li2.1667Mn0.1667Sb1.0Ti0.8333P3O12,9.055562,0.008945052811888758
Li0.1130Mn0.0261Sb0.0348Ti0.0435P0.1565O0.6261,Li2.1667Mn0.5Sb0.6667Ti0.8333P3O12,9.055562,0.0006171747275529978
Li0.1130Mn0.0348Sb0.0261Ti0.0435P0.1565O0.6261,Li2.1667Mn0.6667Sb0.5Ti0.8333P3O12,9.055562,0.0007464703171504413
Li0.1130Mn0.0522Sb0.0087Ti0.0435P0.1565O0.6261,Li2.1667Mn1.0Sb0.1667Ti0.8333P3O12,7.5443654,0.04675637283108752
Li0.1130Mn0.0609Sb0.0000Ti0.0435P0.1565O0.6261,Li2.1667Mn1.1667Sb0.0Ti0.8333P3O12,7.5443654,
Li0.1207Mn0.0000Sb0.0690Ti0.0345P0.1552O0.6207,Li2.3333Mn0.0Sb1.3333Ti0.6667P3O12,9.055562,
Li0.1207Mn0.0172Sb0.0517Ti0.0345P0.1552O0.6207,Li2.3333Mn0.3333Sb1.0Ti0.6667P3O12,9.055562,0.015460525200575373
Li0.1207Mn0.0259Sb0.0431Ti0.0345P0.1552O0.6207,Li2.3333Mn0.5Sb0.8333Ti0.6667P3O12,9.055562,0.0005584060950472139
Li0.1207Mn0.0431Sb0.0259Ti0.0345P0.1552O0.6207,Li2.3333Mn0.8333Sb0.5Ti0.6667P3O12,8.1053095,0.0007814006425290785
Li0.1207Mn0.0517Sb0.0172Ti0.0345P0.1552O0.6207,Li2.3333Mn1.0Sb0.3333Ti0.6667P3O12,8.48787,0.0745469445914392
Li0.1207Mn0.0690Sb0.0000Ti0.0345P0.1552O0.6207,Li2.3333Mn1.3333Sb0.0Ti0.6667P3O12,7.5443654,
Li0.1282Mn0.0000Sb0.0769Ti0.0256P0.1538O0.6154,Li2.5Mn0.0Sb1.5Ti0.5P3O12,9.055562,
Li0.1282Mn0.0085Sb0.0684Ti0.0256P0.1538O0.6154,Li2.5Mn0.1667Sb1.3333Ti0.5P3O12,9.055562,0.011871870674493525
Li0.1282Mn0.0171Sb0.0598Ti0.0256P0.1538O0.6154,Li2.5Mn0.3333Sb1.1667Ti0.5P3O12,9.055562,0.01815558783897715
Li0.1282Mn0.0256Sb0.0513Ti0.0256P0.1538O0.6154,Li2.5Mn0.5Sb1.0Ti0.5P3O12,9.055562,0.02248280584222639
Li0.1282Mn0.0342Sb0.0427Ti0.0256P0.1538O0.6154,Li2.5Mn0.6667Sb0.8333Ti0.5P3O12,9.055562,0.0005919206987643402
Li0.1282Mn0.0427Sb0.0342Ti0.0256P0.1538O0.6154,Li2.5Mn0.8333Sb0.6667Ti0.5P3O12,8.1053095,0.0006802018158811778
Li0.1282Mn0.0513Sb0.0256Ti0.0256P0.1538O0.6154,Li2.5Mn1.0Sb0.5Ti0.5P3O12,8.470593,0.09777948060403195
Li0.1282Mn0.0598Sb0.0171Ti0.0256P0.1538O0.6154,Li2.5Mn1.1667Sb0.3333Ti0.5P3O12,8.48787,0.07959102981465464
Li0.1282Mn0.0684Sb0.0085Ti0.0256P0.1538O0.6154,Li2.5Mn1.3333Sb0.1667Ti0.5P3O12,7.5443654,0.053651613460485734
Li0.1282Mn0.0769Sb0.0000Ti0.0256P0.1538O0.6154,Li2.5Mn1.5Sb0.0Ti0.5P3O12,7.5443654,
Li0.1356Mn0.0000Sb0.0847Ti0.0169P0.1525O0.6102,Li2.6667Mn0.0Sb1.6667Ti0.3333P3O12,9.055562,
Li0.1356Mn0.0085Sb0.0763Ti0.0169P0.1525O0.6102,Li2.6667Mn0.1667Sb1.5Ti0.3333P3O12,9.055562,0.01465832309262995
Li0.1356Mn0.0254Sb0.0593Ti0.0169P0.1525O0.6102,Li2.6667Mn0.5Sb1.1667Ti0.3333P3O12,9.055562,0.027326589067569934
Li0.1356Mn0.0339Sb0.0508Ti0.0169P0.1525O0.6102,Li2.6667Mn0.6667Sb1.0Ti0.3333P3O12,9.055562,0.03169194590808747
Li0.1356Mn0.0508Sb0.0339Ti0.0169P0.1525O0.6102,Li2.6667Mn1.0Sb0.6667Ti0.3333P3O12,8.470593,0.12198041905166983
Li0.1356Mn0.0593Sb0.0254Ti0.0169P0.1525O0.6102,Li2.6667Mn1.1667Sb0.5Ti0.3333P3O12,8.470593,0.10560819379594234
Li0.1356Mn0.0763Sb0.0085Ti0.0169P0.1525O0.6102,Li2.6667Mn1.5Sb0.1667Ti0.3333P3O12,7.5443654,0.05903480730483152
Li0.1356Mn0.0847Sb0.0000Ti0.0169P0.1525O0.6102,Li2.6667Mn1.6667Sb0.0Ti0.3333P3O12,7.480082,
Li0.1429Mn0.0000Sb0.0924Ti0.0084P0.1513O0.6050,Li2.8333Mn0.0Sb1.8333Ti0.1667P3O12,12.787092,
Li0.1429Mn0.0168Sb0.0756Ti0.0084P0.1513O0.6050,Li2.8333Mn0.3333Sb1.5Ti0.1667P3O12,12.787092,0.03119971587017867
Li0.1429Mn0.0252Sb0.0672Ti0.0084P0.1513O0.6050,Li2.8333Mn0.5Sb1.3333Ti0.1667P3O12,12.787092,0.03780472819861645
Li0.1429Mn0.0420Sb0.0504Ti0.0084P0.1513O0.6050,Li2.8333Mn0.8333Sb1.0Ti0.1667P3O12,9.983793,0.04698868118483015
Li0.1429Mn0.0504Sb0.0420Ti0.0084P0.1513O0.6050,Li2.8333Mn1.0Sb0.8333Ti0.1667P3O12,10.349078,0.15434922635205403
Li0.1429Mn0.0672Sb0.0252Ti0.0084P0.1513O0.6050,Li2.8333Mn1.3333Sb0.5Ti0.1667P3O12,10.349078,0.11950534582885176
Li0.1429Mn0.0756Sb0.0168Ti0.0084P0.1513O0.6050,Li2.8333Mn1.5Sb0.3333Ti0.1667P3O12,10.366355,0.09742947806119827
Li0.1429Mn0.0924Sb0.0000Ti0.0084P0.1513O0.6050,Li2.8333Mn1.8333Sb0.0Ti0.1667P3O12,9.358569,
Li0.1500Mn0.0000Sb0.1000Ti0.0000P0.1500O0.6000,Li3.0Mn0.0Sb2.0Ti0.0P3O12,16.133144,
Li0.1500Mn0.0083Sb0.0917Ti0.0000P0.1500O0.6000,Li3.0Mn0.1667Sb1.8333Ti0.0P3O12,16.133144,
Li0.1500Mn0.0167Sb0.0833Ti0.0000P0.1500O0.6000,Li3.0Mn0.3333Sb1.6667Ti0.0P3O12,16.133144,
Li0.1500Mn0.0250Sb0.0750Ti0.0000P0.1500O0.6000,Li3.0Mn0.5Sb1.5Ti0.0P3O12,16.133144,
Li0.1500Mn0.0333Sb0.0667Ti0.0000P0.1500O0.6000,Li3.0Mn0.6667Sb1.3333Ti0.0P3O12,16.133144,
Li0.1500Mn0.0417Sb0.0583Ti0.0000P0.1500O0.6000,Li3.0Mn0.8333Sb1.1667Ti0.0P3O12,13.329849,
Li0.1500Mn0.0500Sb0.0500Ti0.0000P0.1500O0.6000,Li3.0Mn1.0Sb1.0Ti0.0P3O12,13.695134,
Li0.1500Mn0.0583Sb0.0417Ti0.0000P0.1500O0.6000,Li3.0Mn1.1667Sb0.8333Ti0.0P3O12,13.695134,
Li0.1500Mn0.0667Sb0.0333Ti0.0000P0.1500O0.6000,Li3.0Mn1.3333Sb0.6667Ti0.0P3O12,13.695134,
Li0.1500Mn0.0750Sb0.0250Ti0.0000P0.1500O0.6000,Li3.0Mn1.5Sb0.5Ti0.0P3O12,13.695134,
Li0.1500Mn0.0833Sb0.0167Ti0.0000P0.1500O0.6000,Li3.0Mn1.6667Sb0.3333Ti0.0P3O12,13.648128,
Li0.1500Mn0.0917Sb0.0083Ti0.0000P0.1500O0.6000,Li3.0Mn1.8333Sb0.1667Ti0.0P3O12,12.704627,
Li0.1500Mn0.1000Sb0.0000Ti0.0000P0.1500O0.6000,Li3.0Mn2.0Sb0.0Ti0.0P3O12,12.704627,
Li0.0556Mn0.0000Sc0.0000Ti0.1111P0.1667O0.6667,Li1.0Mn0.0Sc0.0Ti2.0P3O12,7.7087817,
Li0.0642Mn0.0000Sc0.0092Ti0.1009P0.1651O0.6605,Li1.1667Mn0.0Sc0.1667Ti1.8333P3O12,8.985445,
Li0.0642Mn0.0092Sc0.0000Ti0.1009P0.1651O0.6605,Li1.1667Mn0.1667Sc0.0Ti1.8333P3O12,7.7087817,
Li0.0727Mn0.0000Sc0.0182Ti0.0909P0.1636O0.6545,Li1.3333Mn0.0Sc0.3333Ti1.6667P3O12,11.915219,
Li0.0727Mn0.0182Sc0.0000Ti0.0909P0.1636O0.6545,Li1.3333Mn0.3333Sc0.0Ti1.6667P3O12,7.7087817,
Li0.0811Mn0.0000Sc0.0270Ti0.0811P0.1622O0.6486,Li1.5Mn0.0Sc0.5Ti1.5P3O12,6.105611,
Li0.0811Mn0.0090Sc0.0180Ti0.0811P0.1622O0.6486,Li1.5Mn0.1667Sc0.3333Ti1.5P3O12,11.957242,0.6043909448537069
Li0.0811Mn0.0180Sc0.0090Ti0.0811P0.1622O0.6486,Li1.5Mn0.3333Sc0.1667Ti1.5P3O12,9.027468,1.0564675524524028
Li0.0811Mn0.0270Sc0.0000Ti0.0811P0.1622O0.6486,Li1.5Mn0.5Sc0.0Ti1.5P3O12,7.750805,
Li0.0893Mn0.0000Sc0.0357Ti0.0714P0.1607O0.6429,Li1.6667Mn0.0Sc0.6667Ti1.3333P3O12,6.484139,
Li0.0893Mn0.0089Sc0.0268Ti0.0714P0.1607O0.6429,Li1.6667Mn0.1667Sc0.5Ti1.3333P3O12,6.484139,0.5363420912239929
Li0.0893Mn0.0268Sc0.0089Ti0.0714P0.1607O0.6429,Li1.6667Mn0.5Sc0.1667Ti1.3333P3O12,9.405996,1.2839367624002136
Li0.0893Mn0.0357Sc0.0000Ti0.0714P0.1607O0.6429,Li1.6667Mn0.6667Sc0.0Ti1.3333P3O12,8.129335,
Li0.0973Mn0.0000Sc0.0442Ti0.0619P0.1593O0.6372,Li1.8333Mn0.0Sc0.8333Ti1.1667P3O12,6.484139,
Li0.0973Mn0.0177Sc0.0265Ti0.0619P0.1593O0.6372,Li1.8333Mn0.3333Sc0.5Ti1.1667P3O12,6.484139,0.7508952498544875
Li0.0973Mn0.0265Sc0.0177Ti0.0619P0.1593O0.6372,Li1.8333Mn0.5Sc0.3333Ti1.1667P3O12,12.335771,1.0085748260463632
Li0.0973Mn0.0442Sc0.0000Ti0.0619P0.1593O0.6372,Li1.8333Mn0.8333Sc0.0Ti1.1667P3O12,7.1790795,
Li0.1053Mn0.0000Sc0.0526Ti0.0526P0.1579O0.6316,Li2.0Mn0.0Sc1.0Ti1.0P3O12,6.484139,
Li0.1053Mn0.0088Sc0.0439Ti0.0526P0.1579O0.6316,Li2.0Mn0.1667Sc0.8333Ti1.0P3O12,6.484139,0.4695590615736192
Li0.1053Mn0.0175Sc0.0351Ti0.0526P0.1579O0.6316,Li2.0Mn0.3333Sc0.6667Ti1.0P3O12,6.484139,0.6882597018299403
Li0.1053Mn0.0263Sc0.0263Ti0.0526P0.1579O0.6316,Li2.0Mn0.5Sc0.5Ti1.0P3O12,6.484139,0.8906645848988193
Li0.1053Mn0.0351Sc0.0175Ti0.0526P0.1579O0.6316,Li2.0Mn0.6667Sc0.3333Ti1.0P3O12,12.335771,1.1547788151851377
Li0.1053Mn0.0439Sc0.0088Ti0.0526P0.1579O0.6316,Li2.0Mn0.8333Sc0.1667Ti1.0P3O12,8.455744,1.6873874433808422
Li0.1053Mn0.0526Sc0.0000Ti0.0526P0.1579O0.6316,Li2.0Mn1.0Sc0.0Ti1.0P3O12,7.5443654,
Li0.1130Mn0.0000Sc0.0609Ti0.0435P0.1565O0.6261,Li2.1667Mn0.0Sc1.1667Ti0.8333P3O12,6.484139,
Li0.1130Mn0.0087Sc0.0522Ti0.0435P0.1565O0.6261,Li2.1667Mn0.1667Sc1.0Ti0.8333P3O12,6.484139,0.0930077655793985
Li0.1130Mn0.0261Sc0.0348Ti0.0435P0.1565O0.6261,Li2.1667Mn0.5Sc0.6667Ti0.8333P3O12,6.484139,0.5016863687112216
Li0.1130Mn0.0348Sc0.0261Ti0.0435P0.1565O0.6261,Li2.1667Mn0.6667Sc0.5Ti0.8333P3O12,6.484139,0.5973438200988456
Li0.1130Mn0.0522Sc0.0087Ti0.0435P0.1565O0.6261,Li2.1667Mn1.0Sc0.1667Ti0.8333P3O12,8.821029,0.2702120796724865
Li0.1130Mn0.0609Sc0.0000Ti0.0435P0.1565O0.6261,Li2.1667Mn1.1667Sc0.0Ti0.8333P3O12,7.5443654,
Li0.1207Mn0.0000Sc0.0690Ti0.0345P0.1552O0.6207,Li2.3333Mn0.0Sc1.3333Ti0.6667P3O12,6.484139,
Li0.1207Mn0.0172Sc0.0517Ti0.0345P0.1552O0.6207,Li2.3333Mn0.3333Sc1.0Ti0.6667P3O12,6.484139,0.1576408583786274
Li0.1207Mn0.0259Sc0.0431Ti0.0345P0.1552O0.6207,Li2.3333Mn0.5Sc0.8333Ti0.6667P3O12,6.484139,0.4439941551590244
Li0.1207Mn0.0431Sc0.0259Ti0.0345P0.1552O0.6207,Li2.3333Mn0.8333Sc0.5Ti0.6667P3O12,5.5338855,0.6210435461816256
Li0.1207Mn0.0517Sc0.0172Ti0.0345P0.1552O0.6207,Li2.3333Mn1.0Sc0.3333Ti0.6667P3O12,11.750802,0.3881488627073264
Li0.1207Mn0.0690Sc0.0000Ti0.0345P0.1552O0.6207,Li2.3333Mn1.3333Sc0.0Ti0.6667P3O12,7.5443654,
Li0.1282Mn0.0000Sc0.0769Ti0.0256P0.1538O0.6154,Li2.5Mn0.0Sc1.5Ti0.5P3O12,6.484139,
Li0.1282Mn0.0085Sc0.0684Ti0.0256P0.1538O0.6154,Li2.5Mn0.1667Sc1.3333Ti0.5P3O12,6.484139,0.11065737405150101
Li0.1282Mn0.0171Sc0.0598Ti0.0256P0.1538O0.6154,Li2.5Mn0.3333Sc1.1667Ti0.5P3O12,6.484139,0.17107272016729075
Li0.1282Mn0.0256Sc0.0513Ti0.0256P0.1538O0.6154,Li2.5Mn0.5Sc1.0Ti0.5P3O12,6.484139,0.2070882385003784
Li0.1282Mn0.0342Sc0.0427Ti0.0256P0.1538O0.6154,Li2.5Mn0.6667Sc0.8333Ti0.5P3O12,6.484139,0.4519521721307022
Li0.1282Mn0.0427Sc0.0342Ti0.0256P0.1538O0.6154,Li2.5Mn0.8333Sc0.6667Ti0.5P3O12,5.5338855,0.5317777730781716
Li0.1282Mn0.0513Sc0.0256Ti0.0256P0.1538O0.6154,Li2.5Mn1.0Sc0.5Ti0.5P3O12,5.8991714,0.5074564745877264
Li0.1282Mn0.0598Sc0.0171Ti0.0256P0.1538O0.6154,Li2.5Mn1.1667Sc0.3333Ti0.5P3O12,11.750802,0.4194605809423522