formula,original_formula,thermal_expansion,li ion conductivity
Li0.0811Al0.0090Mn0.0180Ti0.0811P0.1622O0.6486,Li1.5Al0.1667Mn0.3333Ti1.5P3O12,7.750805,0.5221819263035532
Li0.0811Al0.0180Mn0.0090Ti0.0811P0.1622O0.6486,Li1.5Al0.3333Mn0.1667Ti1.5P3O12,9.155256,1.5499693633398288
Li0.0811Al0.0270Mn0.0000Ti0.0811P0.1622O0.6486,Li1.5Al0.5Mn0.0Ti1.5P3O12,9.155256,
Li0.0893Al0.0000Mn0.0357Ti0.0714P0.1607O0.6429,Li1.6667Al0.0Mn0.6667Ti1.3333P3O12,8.129335,
Li0.0893Al0.0089Mn0.0268Ti0.0714P0.1607O0.6429,Li1.6667Al0.1667Mn0.5Ti1.3333P3O12,8.129335,0.42619316940570645
Li0.0893Al0.0268Mn0.0089Ti0.0714P0.1607O0.6429,Li1.6667Al0.5Mn0.1667Ti1.3333P3O12,9.533785,2.2023747334059256
Li0.0893Al0.0357Mn0.0000Ti0.0714P0.1607O0.6429,Li1.6667Al0.6667Mn0.0Ti1.3333P3O12,9.533785,
Li0.0973Al0.0000Mn0.0442Ti0.0619P0.1593O0.6372,Li1.8333Al0.0Mn0.8333Ti1.1667P3O12,7.1790795,
Li0.0973Al0.0177Mn0.0265Ti0.0619P0.1593O0.6372,Li1.8333Al0.3333Mn0.5Ti1.1667P3O12,9.533785,0.9383954276406964
Li0.0973Al0.0265Mn0.0177Ti0.0619P0.1593O0.6372,Li1.8333Al0.5Mn0.3333Ti1.1667P3O12,9.533785,1.606887772383184
Li0.0973Al0.0442Mn0.0000Ti0.0619P0.1593O0.6372,Li1.8333Al0.8333Mn0.0Ti1.1667P3O12,9.533785,
Li0.1053Al0.0000Mn0.0526Ti0.0526P0.1579O0.6316,Li2.0Al0.0Mn1.0Ti1.0P3O12,7.5443654,
Li0.1053Al0.0088Mn0.0439Ti0.0526P0.1579O0.6316,Li2.0Al0.1667Mn0.8333Ti1.0P3O12,7.1790795,0.31554849561034976
Li0.1053Al0.0175Mn0.0351Ti0.0526P0.1579O0.6316,Li2.0Al0.3333Mn0.6667Ti1.0P3O12,8.129335,0.8026949893577874
Li0.1053Al0.0263Mn0.0263Ti0.0526P0.1579O0.6316,Li2.0Al0.5Mn0.5Ti1.0P3O12,9.533785,1.3429670212843414
Li0.1053Al0.0351Mn0.0175Ti0.0526P0.1579O0.6316,Li2.0Al0.6667Mn0.3333Ti1.0P3O12,9.533785,1.9404655235948058
Li0.1053Al0.0439Mn0.0088Ti0.0526P0.1579O0.6316,Li2.0Al0.8333Mn0.1667Ti1.0P3O12,9.533785,3.01799617488676
Li0.1053Al0.0526Mn0.0000Ti0.0526P0.1579O0.6316,Li2.0Al1.0Mn0.0Ti1.0P3O12,9.533785,
Li0.1130Al0.0000Mn0.0609Ti0.0435P0.1565O0.6261,Li2.1667Al0.0Mn1.1667Ti0.8333P3O12,7.5443654,
Li0.1130Al0.0087Mn0.0522Ti0.0435P0.1565O0.6261,Li2.1667Al0.1667Mn1.0Ti0.8333P3O12,7.5443654,0.26372274347086483
Li0.1130Al0.0261Mn0.0348Ti0.0435P0.1565O0.6261,Li2.1667Al0.5Mn0.6667Ti0.8333P3O12,9.533785,0.017109986386642875
Li0.1130Al0.0348Mn0.0261Ti0.0435P0.1565O0.6261,Li2.1667Al0.6667Mn0.5Ti0.8333P3O12,9.533785,0.02621146916283302
Li0.1130Al0.0522Mn0.0087Ti0.0435P0.1565O0.6261,Li2.1667Al1.0Mn0.1667Ti0.8333P3O12,9.533785,0.18891495362310887
Li0.1130Al0.0609Mn0.0000Ti0.0435P0.1565O0.6261,Li2.1667Al1.1667Mn0.0Ti0.8333P3O12,9.286814,
Li0.1207Al0.0000Mn0.0690Ti0.0345P0.1552O0.6207,Li2.3333Al0.0Mn1.3333Ti0.6667P3O12,7.5443654,
Li0.1207Al0.0172Mn0.0517Ti0.0345P0.1552O0.6207,Li2.3333Al0.3333Mn1.0Ti0.6667P3O12,7.5443654,0.6675317868919025
Li0.1207Al0.0259Mn0.0431Ti0.0345P0.1552O0.6207,Li2.3333Al0.5Mn0.8333Ti0.6667P3O12,8.583533,0.011678590808376526
Li0.1207Al0.0431Mn0.0259Ti0.0345P0.1552O0.6207,Li2.3333Al0.8333Mn0.5Ti0.6667P3O12,9.533785,0.024481488171181388
Li0.1207Al0.0517Mn0.0172Ti0.0345P0.1552O0.6207,Li2.3333Al1.0Mn0.3333Ti0.6667P3O12,9.533785,0.32797070017330626
Li0.1207Al0.0690Mn0.0000Ti0.0345P0.1552O0.6207,Li2.3333Al1.3333Mn0.0Ti0.6667P3O12,9.286814,
Li0.1282Al0.0000Mn0.0769Ti0.0256P0.1538O0.6154,Li2.5Al0.0Mn1.5Ti0.5P3O12,7.5443654,
Li0.1282Al0.0085Mn0.0684Ti0.0256P0.1538O0.6154,Li2.5Al0.1667Mn1.3333Ti0.5P3O12,7.5443654,0.3242594412436556
Li0.1282Al0.0171Mn0.0598Ti0.0256P0.1538O0.6154,Li2.5Al0.3333Mn1.1667Ti0.5P3O12,7.5443654,0.7416271391043736
Li0.1282Al0.0256Mn0.0513Ti0.0256P0.1538O0.6154,Li2.5Al0.5Mn1.0Ti0.5P3O12,8.948818,1.089667281733639
Li0.1282Al0.0342Mn0.0427Ti0.0256P0.1538O0.6154,Li2.5Al0.6667Mn0.8333Ti0.5P3O12,8.583533,0.01093383669267845
Li0.1282Al0.0427Mn0.0342Ti0.0256P0.1538O0.6154,Li2.5Al0.8333Mn0.6667Ti0.5P3O12,9.533785,0.015080385272609555
Li0.1282Al0.0513Mn0.0256Ti0.0256P0.1538O0.6154,Li2.5Al1.0Mn0.5Ti0.5P3O12,9.533785,0.42842123124652653
Li0.1282Al0.0598Mn0.0171Ti0.0256P0.1538O0.6154,Li2.5Al1.1667Mn0.3333Ti0.5P3O12,9.286814,0.3532460750003705
Li0.1282Al0.0684Mn0.0085Ti0.0256P0.1538O0.6154,Li2.5Al1.3333Mn0.1667Ti0.5P3O12,9.286814,0.23007861214124317
Li0.1282Al0.0769Mn0.0000Ti0.0256P0.1538O0.6154,Li2.5Al1.5Mn0.0Ti0.5P3O12,9.286814,
Li0.1356Al0.0000Mn0.0847Ti0.0169P0.1525O0.6102,Li2.6667Al0.0Mn1.6667Ti0.3333P3O12,7.480082,
Li0.1356Al0.0085Mn0.0763Ti0.0169P0.1525O0.6102,Li2.6667Al0.1667Mn1.5Ti0.3333P3O12,7.5443654,0.4007205511413586
Li0.1356Al0.0254Mn0.0593Ti0.0169P0.1525O0.6102,Li2.6667Al0.5Mn1.1667Ti0.3333P3O12,8.948818,1.2983153565923786
Li0.1356Al0.0339Mn0.0508Ti0.0169P0.1525O0.6102,Li2.6667Al0.6667Mn1.0Ti0.3333P3O12,8.948818,1.6075345174716273
Li0.1356Al0.0508Mn0.0339Ti0.0169P0.1525O0.6102,Li2.6667Al1.0Mn0.6667Ti0.3333P3O12,9.533785,0.5229493240780388
Li0.1356Al0.0593Mn0.0254Ti0.0169P0.1525O0.6102,Li2.6667Al1.1667Mn0.5Ti0.3333P3O12,9.286814,0.47142934771288664
Li0.1356Al0.0763Mn0.0085Ti0.0169P0.1525O0.6102,Li2.6667Al1.5Mn0.1667Ti0.3333P3O12,9.286814,0.2701978388253918
Li0.1356Al0.0847Mn0.0000Ti0.0169P0.1525O0.6102,Li2.6667Al1.6667Mn0.0Ti0.3333P3O12,9.286814,
Li0.1429Al0.0000Mn0.0924Ti0.0084P0.1513O0.6050,Li2.8333Al0.0Mn1.8333Ti0.1667P3O12,9.358569,
Li0.1429Al0.0168Mn0.0756Ti0.0084P0.1513O0.6050,Li2.8333Al0.3333Mn1.5Ti0.1667P3O12,9.4228525,1.2017554573475093
Li0.1429Al0.0252Mn0.0672Ti0.0084P0.1513O0.6050,Li2.8333Al0.5Mn1.3333Ti0.1667P3O12,10.827299,1.7156083605972274
Li0.1429Al0.0420Mn0.0504Ti0.0084P0.1513O0.6050,Li2.8333Al0.8333Mn1.0Ti0.1667P3O12,10.827299,2.4093800888217567
Li0.1429Al0.0504Mn0.0420Ti0.0084P0.1513O0.6050,Li2.8333Al1.0Mn0.8333Ti0.1667P3O12,10.462015,0.6694963366777194
Li0.1429Al0.0672Mn0.0252Ti0.0084P0.1513O0.6050,Li2.8333Al1.3333Mn0.5Ti0.1667P3O12,13.018343,0.5624537077048382
Li0.1429Al0.0756Mn0.0168Ti0.0084P0.1513O0.6050,Li2.8333Al1.5Mn0.3333Ti0.1667P3O12,13.018343,0.48032795916438686
Li0.1429Al0.0924Mn0.0000Ti0.0084P0.1513O0.6050,Li2.8333Al1.8333Mn0.0Ti0.1667P3O12,13.018343,
Li0.1500Al0.0000Mn0.1000Ti0.0000P0.1500O0.6000,Li3.0Al0.0Mn2.0Ti0.0P3O12,12.704627,
Li0.1500Al0.0083Mn0.0917Ti0.0000P0.1500O0.6000,Li3.0Al0.1667Mn1.8333Ti0.0P3O12,12.704627,
Li0.1500Al0.0167Mn0.0833Ti0.0000P0.1500O0.6000,Li3.0Al0.3333Mn1.6667Ti0.0P3O12,12.704627,
Li0.1500Al0.0250Mn0.0750Ti0.0000P0.1500O0.6000,Li3.0Al0.5Mn1.5Ti0.0P3O12,12.879568,
Li0.1500Al0.0333Mn0.0667Ti0.0000P0.1500O0.6000,Li3.0Al0.6667Mn1.3333Ti0.0P3O12,12.879568,
Li0.1500Al0.0417Mn0.0583Ti0.0000P0.1500O0.6000,Li3.0Al0.8333Mn1.1667Ti0.0P3O12,12.879568,
Li0.1500Al0.0500Mn0.0500Ti0.0000P0.1500O0.6000,Li3.0Al1.0Mn1.0Ti0.0P3O12,12.879568,
Li0.1500Al0.0583Mn0.0417Ti0.0000P0.1500O0.6000,Li3.0Al1.1667Mn0.8333Ti0.0P3O12,12.514283,
Li0.1500Al0.0667Mn0.0333Ti0.0000P0.1500O0.6000,Li3.0Al1.3333Mn0.6667Ti0.0P3O12,15.070612,
Li0.1500Al0.0750Mn0.0250Ti0.0000P0.1500O0.6000,Li3.0Al1.5Mn0.5Ti0.0P3O12,15.070612,
Li0.1500Al0.0833Mn0.0167Ti0.0000P0.1500O0.6000,Li3.0Al1.6667Mn0.3333Ti0.0P3O12,15.070612,
Li0.1500Al0.0917Mn0.0083Ti0.0000P0.1500O0.6000,Li3.0Al1.8333Mn0.1667Ti0.0P3O12,15.070612,
Li0.1500Al0.1000Mn0.0000Ti0.0000P0.1500O0.6000,Li3.0Al2.0Mn0.0Ti0.0P3O12,15.867943,
Li0.0556Al0.0000Ni0.0000Ti0.1111P0.1667O0.6667,Li1.0Al0.0Ni0.0Ti2.0P3O12,7.7087817,
Li0.0642Al0.0000Ni0.0092Ti0.1009P0.1651O0.6605,Li1.1667Al0.0Ni0.1667Ti1.8333P3O12,7.7087817,
Li0.0642Al0.0092Ni0.0000Ti0.1009P0.1651O0.6605,Li1.1667Al0.1667Ni0.0Ti1.8333P3O12,7.7087817,
Li0.0727Al0.0000Ni0.0182Ti0.0909P0.1636O0.6545,Li1.3333Al0.0Ni0.3333Ti1.6667P3O12,7.7087817,
Li0.0727Al0.0182Ni0.0000Ti0.0909P0.1636O0.6545,Li1.3333Al0.3333Ni0.0Ti1.6667P3O12,9.113234,
Li0.0811Al0.0000Ni0.0270Ti0.0811P0.1622O0.6486,Li1.5Al0.0Ni0.5Ti1.5P3O12,12.950637,
Li0.0811Al0.0090Ni0.0180Ti0.0811P0.1622O0.6486,Li1.5Al0.1667Ni0.3333Ti1.5P3O12,7.750805,0.26384409570899703
Li0.0811Al0.0180Ni0.0090Ti0.0811P0.1622O0.6486,Li1.5Al0.3333Ni0.1667Ti1.5P3O12,9.155256,0.9326075049068365
Li0.0811Al0.0270Ni0.0000Ti0.0811P0.1622O0.6486,Li1.5Al0.5Ni0.0Ti1.5P3O12,9.155256,
Li0.0893Al0.0000Ni0.0357Ti0.0714P0.1607O0.6429,Li1.6667Al0.0Ni0.6667Ti1.3333P3O12,13.329165,
Li0.0893Al0.0089Ni0.0268Ti0.0714P0.1607O0.6429,Li1.6667Al0.1667Ni0.5Ti1.3333P3O12,13.329165,0.20076758963815744
Li0.0893Al0.0268Ni0.0089Ti0.0714P0.1607O0.6429,Li1.6667Al0.5Ni0.1667Ti1.3333P3O12,9.533785,1.293682936791506
Li0.0893Al0.0357Ni0.0000Ti0.0714P0.1607O0.6429,Li1.6667Al0.6667Ni0.0Ti1.3333P3O12,9.533785,
Li0.0973Al0.0000Ni0.0442Ti0.0619P0.1593O0.6372,Li1.8333Al0.0Ni0.8333Ti1.1667P3O12,13.373692,
Li0.0973Al0.0177Ni0.0265Ti0.0619P0.1593O0.6372,Li1.8333Al0.3333Ni0.5Ti1.1667P3O12,14.733611,0.44949191241732356
Li0.0973Al0.0265Ni0.0177Ti0.0619P0.1593O0.6372,Li1.8333Al0.5Ni0.3333Ti1.1667P3O12,9.533785,0.8909604520449039
Li0.0973Al0.0442Ni0.0000Ti0.0619P0.1593O0.6372,Li1.8333Al0.8333Ni0.0Ti1.1667P3O12,9.533785,
Li0.1053Al0.0000Ni0.0526Ti0.0526P0.1579O0.6316,Li2.0Al0.0Ni1.0Ti1.0P3O12,13.373692,
Li0.1053Al0.0088Ni0.0439Ti0.0526P0.1579O0.6316,Li2.0Al0.1667Ni0.8333Ti1.0P3O12,13.373692,0.13523867060388145
Li0.1053Al0.0175Ni0.0351Ti0.0526P0.1579O0.6316,Li2.0Al0.3333Ni0.6667Ti1.0P3O12,13.329165,0.36516590809233074
Li0.1053Al0.0263Ni0.0263Ti0.0526P0.1579O0.6316,Li2.0Al0.5Ni0.5Ti1.0P3O12,14.733611,0.6788618245009417
Li0.1053Al0.0351Ni0.0175Ti0.0526P0.1579O0.6316,Li2.0Al0.6667Ni0.3333Ti1.0P3O12,9.533785,1.0833155871925415
Li0.1053Al0.0439Ni0.0088Ti0.0526P0.1579O0.6316,Li2.0Al0.8333Ni0.1667Ti1.0P3O12,9.533785,1.7665875360573133
Li0.1053Al0.0526Ni0.0000Ti0.0526P0.1579O0.6316,Li2.0Al1.0Ni0.0Ti1.0P3O12,9.533785,
Li0.1130Al0.0000Ni0.0609Ti0.0435P0.1565O0.6261,Li2.1667Al0.0Ni1.1667Ti0.8333P3O12,13.441338,
Li0.1130Al0.0087Ni0.0522Ti0.0435P0.1565O0.6261,Li2.1667Al0.1667Ni1.0Ti0.8333P3O12,13.373692,0.24344156932448888
Li0.1130Al0.0261Ni0.0348Ti0.0435P0.1565O0.6261,Li2.1667Al0.5Ni0.6667Ti0.8333P3O12,14.733611,0.017008841887226085
Li0.1130Al0.0348Ni0.0261Ti0.0435P0.1565O0.6261,Li2.1667Al0.6667Ni0.5Ti0.8333P3O12,14.733611,0.026300720801949087
Li0.1130Al0.0522Ni0.0087Ti0.0435P0.1565O0.6261,Li2.1667Al1.0Ni0.1667Ti0.8333P3O12,9.533785,0.3737794193205056
Li0.1130Al0.0609Ni0.0000Ti0.0435P0.1565O0.6261,Li2.1667Al1.1667Ni0.0Ti0.8333P3O12,9.286814,
Li0.1207Al0.0000Ni0.0690Ti0.0345P0.1552O0.6207,Li2.3333Al0.0Ni1.3333Ti0.6667P3O12,13.441338,
Li0.1207Al0.0172Ni0.0517Ti0.0345P0.1552O0.6207,Li2.3333Al0.3333Ni1.0Ti0.6667P3O12,13.373692,0.6283861364455559
Li0.1207Al0.0259Ni0.0431Ti0.0345P0.1552O0.6207,Li2.3333Al0.5Ni0.8333Ti0.6667P3O12,14.778137,0.011863479223010011
Li0.1207Al0.0431Ni0.0259Ti0.0345P0.1552O0.6207,Li2.3333Al0.8333Ni0.5Ti0.6667P3O12,14.733611,0.025201827638894062
Li0.1207Al0.0517Ni0.0172Ti0.0345P0.1552O0.6207,Li2.3333Al1.0Ni0.3333Ti0.6667P3O12,9.533785,0.7082060703994248
Li0.1207Al0.0690Ni0.0000Ti0.0345P0.1552O0.6207,Li2.3333Al1.3333Ni0.0Ti0.6667P3O12,9.286814,
Li0.1282Al0.0000Ni0.0769Ti0.0256P0.1538O0.6154,Li2.5Al0.0Ni1.5Ti0.5P3O12,13.441338,
Li0.1282Al0.0085Ni0.0684Ti0.0256P0.1538O0.6154,Li2.5Al0.1667Ni1.3333Ti0.5P3O12,13.441338,0.3219210080696087
Li0.1282Al0.0171Ni0.0598Ti0.0256P0.1538O0.6154,Li2.5Al0.3333Ni1.1667Ti0.5P3O12,13.373692,0.7107810325796003
Li0.1282Al0.0256Ni0.0513Ti0.0256P0.1538O0.6154,Li2.5Al0.5Ni1.0Ti0.5P3O12,14.778137,1.0344027917704244
Li0.1282Al0.0342Ni0.0427Ti0.0256P0.1538O0.6154,Li2.5Al0.6667Ni0.8333Ti0.5P3O12,14.778137,0.012069515449977699
Li0.1282Al0.0427Ni0.0342Ti0.0256P0.1538O0.6154,Li2.5Al0.8333Ni0.6667Ti0.5P3O12,14.733611,0.016750531310950743
Li0.1282Al0.0513Ni0.0256Ti0.0256P0.1538O0.6154,Li2.5Al1.0Ni0.5Ti0.5P3O12,14.733611,0.9807403012679373
Li0.1282Al0.0598Ni0.0171Ti0.0256P0.1538O0.6154,Li2.5Al1.1667Ni0.3333Ti0.5P3O12,9.286814,0.7469175379799979
Li0.1282Al0.0684Ni0.0085Ti0.0256P0.1538O0.6154,Li2.5Al1.3333Ni0.1667Ti0.5P3O12,9.286814,0.4207347825068087
Li0.1282Al0.0769Ni0.0000Ti0.0256P0.1538O0.6154,Li2.5Al1.5Ni0.0Ti0.5P3O12,9.286814,
Li0.1356Al0.0000Ni0.0847Ti0.0169P0.1525O0.6102,Li2.6667Al0.0Ni1.6667Ti0.3333P3O12,13.38264,
Li0.1356Al0.0085Ni0.0763Ti0.0169P0.1525O0.6102,Li2.6667Al0.1667Ni1.5Ti0.3333P3O12,13.441338,0.3985932216931835
Li0.1356Al0.0254Ni0.0593Ti0.0169P0.1525O0.6102,Li2.6667Al0.5Ni1.1667Ti0.3333P3O12,14.778137,1.2083670045586616
Li0.1356Al0.0339Ni0.0508Ti0.0169P0.1525O0.6102,Li2.6667Al0.6667Ni1.0Ti0.3333P3O12,14.778137,1.4884426813601142
Li0.1356Al0.0508Ni0.0339Ti0.0169P0.1525O0.6102,Li2.6667Al1.0Ni0.6667Ti0.3333P3O12,14.733611,1.2342245649776633
Li0.1356Al0.0593Ni0.0254Ti0.0169P0.1525O0.6102,Li2.6667Al1.1667Ni0.5Ti0.3333P3O12,14.486641,1.0531176997092513
Li0.1356Al0.0763Ni0.0085Ti0.0169P0.1525O0.6102,Li2.6667Al1.5Ni0.1667Ti0.3333P3O12,9.286814,0.46338192885229024
Li0.1356Al0.0847Ni0.0000Ti0.0169P0.1525O0.6102,Li2.6667Al1.6667Ni0.0Ti0.3333P3O12,9.286814,
Li0.1429Al0.0000Ni0.0924Ti0.0084P0.1513O0.6050,Li2.8333Al0.0Ni1.8333Ti0.1667P3O12,15.33442,
Li0.1429Al0.0168Ni0.0756Ti0.0084P0.1513O0.6050,Li2.8333Al0.3333Ni1.5Ti0.1667P3O12,15.393118,1.1206363434494062
Li0.1429Al0.0252Ni0.0672Ti0.0084P0.1513O0.6050,Li2.8333Al0.5Ni1.3333Ti0.1667P3O12,16.797564,1.594255052411994
Li0.1429Al0.0420Ni0.0504Ti0.0084P0.1513O0.6050,Li2.8333Al0.8333Ni1.0Ti0.1667P3O12,16.729918,2.2564687171531594
Li0.1429Al0.0504Ni0.0420Ti0.0084P0.1513O0.6050,Li2.8333Al1.0Ni0.8333Ti0.1667P3O12,16.729918,1.5307603269736212
Li0.1429Al0.0672Ni0.0252Ti0.0084P0.1513O0.6050,Li2.8333Al1.3333Ni0.5Ti0.1667P3O12,16.438423,1.2163443523746165
Li0.1429Al0.0756Ni0.0168Ti0.0084P0.1513O0.6050,Li2.8333Al1.5Ni0.3333Ti0.1667P3O12,13.018343,0.9571356268556045
Li0.1429Al0.0924Ni0.0000Ti0.0084P0.1513O0.6050,Li2.8333Al1.8333Ni0.0Ti0.1667P3O12,13.018343,
Li0.1500Al0.0000Ni0.1000Ti0.0000P0.1500O0.6000,Li3.0Al0.0Ni2.0Ti0.0P3O12,18.680473,
Li0.1500Al0.0083Ni0.0917Ti0.0000P0.1500O0.6000,Li3.0Al0.1667Ni1.8333Ti0.0P3O12,18.680473,
Li0.1500Al0.0167Ni0.0833Ti0.0000P0.1500O0.6000,Li3.0Al0.3333Ni1.6667Ti0.0P3O12,18.680473,
Li0.1500Al0.0250Ni0.0750Ti0.0000P0.1500O0.6000,Li3.0Al0.5Ni1.5Ti0.0P3O12,18.849829,
Li0.1500Al0.0333Ni0.0667Ti0.0000P0.1500O0.6000,Li3.0Al0.6667Ni1.3333Ti0.0P3O12,18.849829,
Li0.1500Al0.0417Ni0.0583Ti0.0000P0.1500O0.6000,Li3.0Al0.8333Ni1.1667Ti0.0P3O12,18.782183,
Li0.1500Al0.0500Ni0.0500Ti0.0000P0.1500O0.6000,Li3.0Al1.0Ni1.0Ti0.0P3O12,18.782183,
Li0.1500Al0.0583Ni0.0417Ti0.0000P0.1500O0.6000,Li3.0Al1.1667Ni0.8333Ti0.0P3O12,18.782183,
Li0.1500Al0.0667Ni0.0333Ti0.0000P0.1500O0.6000,Li3.0Al1.3333Ni0.6667Ti0.0P3O12,18.490688,
Li0.1500Al0.0750Ni0.0250Ti0.0000P0.1500O0.6000,Li3.0Al1.5Ni0.5Ti0.0P3O12,18.490688,
Li0.1500Al0.0833Ni0.0167Ti0.0000P0.1500O0.6000,Li3.0Al1.6667Ni0.3333Ti0.0P3O12,15.070612,
Li0.1500Al0.0917Ni0.0083Ti0.0000P0.1500O0.6000,Li3.0Al1.8333Ni0.1667Ti0.0P3O12,15.070612,
Li0.1500Al0.1000Ni0.0000Ti0.0000P0.1500O0.6000,Li3.0Al2.0Ni0.0Ti0.0P3O12,15.867943,
Li0.0556Al0.0000Sb0.0000Ti0.1111P0.1667O0.6667,Li1.0Al0.0Sb0.0Ti2.0P3O12,7.7087817,
Li0.0642Al0.0000Sb0.0092Ti0.1009P0.1651O0.6605,Li1.1667Al0.0Sb0.1667Ti1.8333P3O12,7.7087817,
Li0.0642Al0.0092Sb0.0000Ti0.1009P0.1651O0.6605,Li1.1667Al0.1667Sb0.0Ti1.8333P3O12,7.7087817,
Li0.0727Al0.0000Sb0.0182Ti0.0909P0.1636O0.6545,Li1.3333Al0.0Sb0.3333Ti1.6667P3O12,8.6522875,
Li0.0727Al0.0182Sb0.0000Ti0.0909P0.1636O0.6545,Li1.3333Al0.3333Sb0.0Ti1.6667P3O12,9.113234,
Li0.0811Al0.0000Sb0.0270Ti0.0811P0.1622O0.6486,Li1.5Al0.0Sb0.5Ti1.5P3O12,8.677033,
Li0.0811Al0.0090Sb0.0180Ti0.0811P0.1622O0.6486,Li1.5Al0.1667Sb0.3333Ti1.5P3O12,8.69431,0.023996159224524687
Li0.0811Al0.0180Sb0.0090Ti0.0811P0.1622O0.6486,Li1.5Al0.3333Sb0.1667Ti1.5P3O12,9.155256,0.08225333260372975
Li0.0811Al0.0270Sb0.0000Ti0.0811P0.1622O0.6486,Li1.5Al0.5Sb0.0Ti1.5P3O12,9.155256,
Li0.0893Al0.0000Sb0.0357Ti0.0714P0.1607O0.6429,Li1.6667Al0.0Sb0.6667Ti1.3333P3O12,9.055562,
Li0.0893Al0.0089Sb0.0268Ti0.0714P0.1607O0.6429,Li1.6667Al0.1667Sb0.5Ti1.3333P3O12,9.055562,0.01815283712524334
Li0.0893Al0.0268Sb0.0089Ti0.0714P0.1607O0.6429,Li1.6667Al0.5Sb0.1667Ti1.3333P3O12,9.533785,0.12197593251209604
Li0.0893Al0.0357Sb0.0000Ti0.0714P0.1607O0.6429,Li1.6667Al0.6667Sb0.0Ti1.3333P3O12,9.533785,
Li0.0973Al0.0000Sb0.0442Ti0.0619P0.1593O0.6372,Li1.8333Al0.0Sb0.8333Ti1.1667P3O12,9.055562,
Li0.0973Al0.0177Sb0.0265Ti0.0619P0.1593O0.6372,Li1.8333Al0.3333Sb0.5Ti1.1667P3O12,10.460009,0.040595560868694605
Li0.0973Al0.0265Sb0.0177Ti0.0619P0.1593O0.6372,Li1.8333Al0.5Sb0.3333Ti1.1667P3O12,10.477285,0.07842869396952439
Li0.0973Al0.0442Sb0.0000Ti0.0619P0.1593O0.6372,Li1.8333Al0.8333Sb0.0Ti1.1667P3O12,9.533785,
Li0.1053Al0.0000Sb0.0526Ti0.0526P0.1579O0.6316,Li2.0Al0.0Sb1.0Ti1.0P3O12,9.055562,
Li0.1053Al0.0088Sb0.0439Ti0.0526P0.1579O0.6316,Li2.0Al0.1667Sb0.8333Ti1.0P3O12,9.055562,0.01230188157672952
Li0.1053Al0.0175Sb0.0351Ti0.0526P0.1579O0.6316,Li2.0Al0.3333Sb0.6667Ti1.0P3O12,9.055562,0.03317832622339404
Li0.1053Al0.0263Sb0.0263Ti0.0526P0.1579O0.6316,Li2.0Al0.5Sb0.5Ti1.0P3O12,10.460009,0.06068389175397938
Li0.1053Al0.0351Sb0.0175Ti0.0526P0.1579O0.6316,Li2.0Al0.6667Sb0.3333Ti1.0P3O12,10.477285,0.09774513235065421
Li0.1053Al0.0439Sb0.0088Ti0.0526P0.1579O0.6316,Li2.0Al0.8333Sb0.1667Ti1.0P3O12,9.533785,0.17791006157945008
Li0.1053Al0.0526Sb0.0000Ti0.0526P0.1579O0.6316,Li2.0Al1.0Sb0.0Ti1.0P3O12,9.533785,
Li0.1130Al0.0000Sb0.0609Ti0.0435P0.1565O0.6261,Li2.1667Al0.0Sb1.1667Ti0.8333P3O12,9.055562,
Li0.1130Al0.0087Sb0.0522Ti0.0435P0.1565O0.6261,Li2.1667Al0.1667Sb1.0Ti0.8333P3O12,9.055562,0.02835913539042178
Li0.1130Al0.0261Sb0.0348Ti0.0435P0.1565O0.6261,Li2.1667Al0.5Sb0.6667Ti0.8333P3O12,10.460009,0.00031650078681308674
Li0.1130Al0.0348Sb0.0261Ti0.0435P0.1565O0.6261,Li2.1667Al0.6667Sb0.5Ti0.8333P3O12,10.460009,0.0004507991785502232
Li0.1130Al0.0522Sb0.0087Ti0.0435P0.1565O0.6261,Li2.1667Al1.0Sb0.1667Ti0.8333P3O12,9.533785,0.08305921399829869
Li0.1130Al0.0609Sb0.0000Ti0.0435P0.1565O0.6261,Li2.1667Al1.1667Sb0.0Ti0.8333P3O12,9.286814,
Li0.1207Al0.0000Sb0.0690Ti0.0345P0.1552O0.6207,Li2.3333Al0.0Sb1.3333Ti0.6667P3O12,9.055562,
Li0.1207Al0.0172Sb0.0517Ti0.0345P0.1552O0.6207,Li2.3333Al0.3333Sb1.0Ti0.6667P3O12,9.055562,0.07863304378897668
Li0.1207Al0.0259Sb0.0431Ti0.0345P0.1552O0.6207,Li2.3333Al0.5Sb0.8333Ti0.6667P3O12,10.460009,0.00023120208006467983
Li0.1207Al0.0431Sb0.0259Ti0.0345P0.1552O0.6207,Li2.3333Al0.8333Sb0.5Ti0.6667P3O12,10.460009,0.00041249747550419673
Li0.1207Al0.0517Sb0.0172Ti0.0345P0.1552O0.6207,Li2.3333Al1.0Sb0.3333Ti0.6667P3O12,10.477285,0.12991288549701302
Li0.1207Al0.0690Sb0.0000Ti0.0345P0.1552O0.6207,Li2.3333Al1.3333Sb0.0Ti0.6667P3O12,9.286814,
Li0.1282Al0.0000Sb0.0769Ti0.0256P0.1538O0.6154,Li2.5Al0.0Sb1.5Ti0.5P3O12,9.055562,
Li0.1282Al0.0085Sb0.0684Ti0.0256P0.1538O0.6154,Li2.5Al0.1667Sb1.3333Ti0.5P3O12,9.055562,0.04029678386899121
Li0.1282Al0.0171Sb0.0598Ti0.0256P0.1538O0.6154,Li2.5Al0.3333Sb1.1667Ti0.5P3O12,9.055562,0.09826831764772821
Li0.1282Al0.0256Sb0.0513Ti0.0256P0.1538O0.6154,Li2.5Al0.5Sb1.0Ti0.5P3O12,10.460009,0.15466781775201077
Li0.1282Al0.0342Sb0.0427Ti0.0256P0.1538O0.6154,Li2.5Al0.6667Sb0.8333Ti0.5P3O12,10.460009,0.00021803525695326755
Li0.1282Al0.0427Sb0.0342Ti0.0256P0.1538O0.6154,Li2.5Al0.8333Sb0.6667Ti0.5P3O12,10.460009,0.00027701966835349303
Li0.1282Al0.0513Sb0.0256Ti0.0256P0.1538O0.6154,Li2.5Al1.0Sb0.5Ti0.5P3O12,10.460009,0.1679152061585581
Li0.1282Al0.0598Sb0.0171Ti0.0256P0.1538O0.6154,Li2.5Al1.1667Sb0.3333Ti0.5P3O12,10.230314,0.13677390797941766
Li0.1282Al0.0684Sb0.0085Ti0.0256P0.1538O0.6154,Li2.5Al1.3333Sb0.1667Ti0.5P3O12,9.286814,0.09054437932070876
Li0.1282Al0.0769Sb0.0000Ti0.0256P0.1538O0.6154,Li2.5Al1.5Sb0.0Ti0.5P3O12,9.286814,
Li0.1356Al0.0000Sb0.0847Ti0.0169P0.1525O0.6102,Li2.6667Al0.0Sb1.6667Ti0.3333P3O12,9.055562,
Li0.1356Al0.0085Sb0.0763Ti0.0169P0.1525O0.6102,Li2.6667Al0.1667Sb1.5Ti0.3333P3O12,9.055562,0.05417679208209205
Li0.1356Al0.0254Sb0.0593Ti0.0169P0.1525O0.6102,Li2.6667Al0.5Sb1.1667Ti0.3333P3O12,10.460009,0.20572858972653826
Li0.1356Al0.0339Sb0.0508Ti0.0169P0.1525O0.6102,Li2.6667Al0.6667Sb1.0Ti0.3333P3O12,10.460009,0.267783447217613
Li0.1356Al0.0508Sb0.0339Ti0.0169P0.1525O0.6102,Li2.6667Al1.0Sb0.6667Ti0.3333P3O12,10.460009,0.20239644870361376
Li0.1356Al0.0593Sb0.0254Ti0.0169P0.1525O0.6102,Li2.6667Al1.1667Sb0.5Ti0.3333P3O12,10.2130375,0.1774446929847438
Li0.1356Al0.0763Sb0.0085Ti0.0169P0.1525O0.6102,Li2.6667Al1.5Sb0.1667Ti0.3333P3O12,9.286814,0.09762929518029533
Li0.1356Al0.0847Sb0.0000Ti0.0169P0.1525O0.6102,Li2.6667Al1.6667Sb0.0Ti0.3333P3O12,9.286814,