formula,original_formula,thermal_expansion,li ion conductivity
Li0.1053B0.0526Ti0.0526P0.1579O0.6316,Li2.0B0.0B1.0Ti1.0P3O12,8.129335,0.004946367113012712
Li0.1053B0.0526Ti0.0526P0.1579O0.6316,Li2.0B0.1667B0.8333Ti1.0P3O12,8.129335,3.681208769951343
Li0.1053B0.0526Ti0.0526P0.1579O0.6316,Li2.0B0.3333B0.6667Ti1.0P3O12,8.129335,3.3330068636297425
Li0.1053B0.0526Ti0.0526P0.1579O0.6316,Li2.0B0.5B0.5Ti1.0P3O12,8.129335,2.9052205736096766
Li0.1053B0.0526Ti0.0526P0.1579O0.6316,Li2.0B0.6667B0.3333Ti1.0P3O12,8.129335,2.324905200761849
Li0.1053B0.0526Ti0.0526P0.1579O0.6316,Li2.0B0.8333B0.1667Ti1.0P3O12,8.129335,1.467644025556919
Li0.1053B0.0526Ti0.0526P0.1579O0.6316,Li2.0B1.0B0.0Ti1.0P3O12,8.129335,
Li0.1130B0.0609Ti0.0435P0.1565O0.6261,Li2.1667B0.0B1.1667Ti0.8333P3O12,8.129335,0.3447499374092745
Li0.1130B0.0609Ti0.0435P0.1565O0.6261,Li2.1667B0.1667B1.0Ti0.8333P3O12,8.129335,0.3481830714217283
Li0.1130B0.0609Ti0.0435P0.1565O0.6261,Li2.1667B0.5B0.6667Ti0.8333P3O12,8.129335,0.08290086727777633
Li0.1130B0.0609Ti0.0435P0.1565O0.6261,Li2.1667B0.6667B0.5Ti0.8333P3O12,8.129335,0.07244242519480726
Li0.1130B0.0609Ti0.0435P0.1565O0.6261,Li2.1667B1.0B0.1667Ti0.8333P3O12,8.129335,0.03806441844928006
Li0.1130B0.0609Ti0.0435P0.1565O0.6261,Li2.1667B1.1667B0.0Ti0.8333P3O12,8.129335,
Li0.1207B0.0690Ti0.0345P0.1552O0.6207,Li2.3333B0.0B1.3333Ti0.6667P3O12,8.129335,0.2753520023481859
Li0.1207B0.0690Ti0.0345P0.1552O0.6207,Li2.3333B0.3333B1.0Ti0.6667P3O12,8.129335,0.2819878264353742
Li0.1207B0.0690Ti0.0345P0.1552O0.6207,Li2.3333B0.5B0.8333Ti0.6667P3O12,8.129335,0.10458611480472463
Li0.1207B0.0690Ti0.0345P0.1552O0.6207,Li2.3333B0.8333B0.5Ti0.6667P3O12,8.129335,0.08173586122350758
Li0.1207B0.0690Ti0.0345P0.1552O0.6207,Li2.3333B1.0B0.3333Ti0.6667P3O12,8.129335,0.06538014809770772
Li0.1207B0.0690Ti0.0345P0.1552O0.6207,Li2.3333B1.3333B0.0Ti0.6667P3O12,8.129335,
Li0.1282B0.0769Ti0.0256P0.1538O0.6154,Li2.5B0.0B1.5Ti0.5P3O12,8.129335,0.19251036037457014
Li0.1282B0.0769Ti0.0256P0.1538O0.6154,Li2.5B0.1667B1.3333Ti0.5P3O12,8.129335,0.19548593777221368
Li0.1282B0.0769Ti0.0256P0.1538O0.6154,Li2.5B0.3333B1.1667Ti0.5P3O12,8.129335,0.19860910027426457
Li0.1282B0.0769Ti0.0256P0.1538O0.6154,Li2.5B0.5B1.0Ti0.5P3O12,8.129335,0.2017868115201406
Li0.1282B0.0769Ti0.0256P0.1538O0.6154,Li2.5B0.6667B0.8333Ti0.5P3O12,8.129335,0.12694846179606867
Li0.1282B0.0769Ti0.0256P0.1538O0.6154,Li2.5B0.8333B0.6667Ti0.5P3O12,8.129335,0.11375873001085555
Li0.1282B0.0769Ti0.0256P0.1538O0.6154,Li2.5B1.0B0.5Ti0.5P3O12,8.129335,0.09873368606276063
Li0.1282B0.0769Ti0.0256P0.1538O0.6154,Li2.5B1.1667B0.3333Ti0.5P3O12,8.129335,0.07924320293650496
Li0.1282B0.0769Ti0.0256P0.1538O0.6154,Li2.5B1.3333B0.1667Ti0.5P3O12,8.129335,0.05305516029478216
Li0.1282B0.0769Ti0.0256P0.1538O0.6154,Li2.5B1.5B0.0Ti0.5P3O12,8.129335,
Li0.1356B0.0847Ti0.0169P0.1525O0.6102,Li2.6667B0.0B1.6667Ti0.3333P3O12,8.129335,0.11505397878712292
Li0.1356B0.0847Ti0.0169P0.1525O0.6102,Li2.6667B0.1667B1.5Ti0.3333P3O12,8.129335,0.11687050375134417
Li0.1356B0.0847Ti0.0169P0.1525O0.6102,Li2.6667B0.5B1.1667Ti0.3333P3O12,8.129335,0.12078470362648448
Li0.1356B0.0847Ti0.0169P0.1525O0.6102,Li2.6667B0.6667B1.0Ti0.3333P3O12,8.129335,0.12288564207458723
Li0.1356B0.0847Ti0.0169P0.1525O0.6102,Li2.6667B1.0B0.6667Ti0.3333P3O12,8.129335,0.1506066976984046
Li0.1356B0.0847Ti0.0169P0.1525O0.6102,Li2.6667B1.1667B0.5Ti0.3333P3O12,8.129335,0.13047029850044828
Li0.1356B0.0847Ti0.0169P0.1525O0.6102,Li2.6667B1.5B0.1667Ti0.3333P3O12,8.129335,0.07091981793308927
Li0.1356B0.0847Ti0.0169P0.1525O0.6102,Li2.6667B1.6667B0.0Ti0.3333P3O12,8.129335,
Li0.1429B0.0924Ti0.0084P0.1513O0.6050,Li2.8333B0.0B1.8333Ti0.1667P3O12,11.860868,0.049101836517182355
Li0.1429B0.0924Ti0.0084P0.1513O0.6050,Li2.8333B0.3333B1.5Ti0.1667P3O12,11.860868,0.050601963147311975
Li0.1429B0.0924Ti0.0084P0.1513O0.6050,Li2.8333B0.5B1.3333Ti0.1667P3O12,11.860868,0.05143501703421388
Li0.1429B0.0924Ti0.0084P0.1513O0.6050,Li2.8333B0.8333B1.0Ti0.1667P3O12,11.860868,0.05317733931900082
Li0.1429B0.0924Ti0.0084P0.1513O0.6050,Li2.8333B1.0B0.8333Ti0.1667P3O12,11.860868,0.29671883420475914
Li0.1429B0.0924Ti0.0084P0.1513O0.6050,Li2.8333B1.3333B0.5Ti0.1667P3O12,11.860868,0.22564303159782184
Li0.1429B0.0924Ti0.0084P0.1513O0.6050,Li2.8333B1.5B0.3333Ti0.1667P3O12,11.860868,0.17647206514336902
Li0.1429B0.0924Ti0.0084P0.1513O0.6050,Li2.8333B1.8333B0.0Ti0.1667P3O12,11.860868,
Li0.1500B0.1000Ti0.0000P0.1500O0.6000,Li3.0B0.0B2.0Ti0.0P3O12,15.206924,
Li0.1500B0.1000Ti0.0000P0.1500O0.6000,Li3.0B0.1667B1.8333Ti0.0P3O12,15.206924,
Li0.1500B0.1000Ti0.0000P0.1500O0.6000,Li3.0B0.3333B1.6667Ti0.0P3O12,15.206924,
Li0.1500B0.1000Ti0.0000P0.1500O0.6000,Li3.0B0.5B1.5Ti0.0P3O12,15.206924,
Li0.1500B0.1000Ti0.0000P0.1500O0.6000,Li3.0B0.6667B1.3333Ti0.0P3O12,15.206924,
Li0.1500B0.1000Ti0.0000P0.1500O0.6000,Li3.0B0.8333B1.1667Ti0.0P3O12,15.206924,
Li0.1500B0.1000Ti0.0000P0.1500O0.6000,Li3.0B1.0B1.0Ti0.0P3O12,15.206924,
Li0.1500B0.1000Ti0.0000P0.1500O0.6000,Li3.0B1.1667B0.8333Ti0.0P3O12,15.206924,
Li0.1500B0.1000Ti0.0000P0.1500O0.6000,Li3.0B1.3333B0.6667Ti0.0P3O12,15.206924,
Li0.1500B0.1000Ti0.0000P0.1500O0.6000,Li3.0B1.5B0.5Ti0.0P3O12,15.206924,
Li0.1500B0.1000Ti0.0000P0.1500O0.6000,Li3.0B1.6667B0.3333Ti0.0P3O12,15.206924,
Li0.1500B0.1000Ti0.0000P0.1500O0.6000,Li3.0B1.8333B0.1667Ti0.0P3O12,15.206924,
Li0.1500B0.1000Ti0.0000P0.1500O0.6000,Li3.0B2.0B0.0Ti0.0P3O12,15.206924,
Li0.0556B0.0000Co0.0000Ti0.1111P0.1667O0.6667,Li1.0B0.0Co0.0Ti2.0P3O12,7.7087817,
Li0.0642B0.0000Co0.0092Ti0.1009P0.1651O0.6605,Li1.1667B0.0Co0.1667Ti1.8333P3O12,7.7087817,
Li0.0642B0.0092Co0.0000Ti0.1009P0.1651O0.6605,Li1.1667B0.1667Co0.0Ti1.8333P3O12,7.7087817,
Li0.0727B0.0000Co0.0182Ti0.0909P0.1636O0.6545,Li1.3333B0.0Co0.3333Ti1.6667P3O12,7.7087817,
Li0.0727B0.0182Co0.0000Ti0.0909P0.1636O0.6545,Li1.3333B0.3333Co0.0Ti1.6667P3O12,7.7087817,
Li0.0811B0.0000Co0.0270Ti0.0811P0.1622O0.6486,Li1.5B0.0Co0.5Ti1.5P3O12,7.750805,
Li0.0811B0.0090Co0.0180Ti0.0811P0.1622O0.6486,Li1.5B0.1667Co0.3333Ti1.5P3O12,7.750805,3.6341661426153755
Li0.1429Fe0.0504B0.0420Ti0.0084P0.1513O0.6050,Li2.8333Fe1.0B0.8333Ti0.1667P3O12,10.704269,11.437076841958357
Li0.0811B0.0270Co0.0000Ti0.0811P0.1622O0.6486,Li1.5B0.5Co0.0Ti1.5P3O12,7.750805,
Li0.0893B0.0000Co0.0357Ti0.0714P0.1607O0.6429,Li1.6667B0.0Co0.6667Ti1.3333P3O12,8.129335,
Li0.0893B0.0089Co0.0268Ti0.0714P0.1607O0.6429,Li1.6667B0.1667Co0.5Ti1.3333P3O12,8.129335,3.043915071604792
Li0.0973B0.0265As0.0177Ti0.0619P0.1593O0.6372,Li1.8333B0.5As0.3333Ti1.1667P3O12,8.129335,11.391352680875222
Li0.0893B0.0357Co0.0000Ti0.0714P0.1607O0.6429,Li1.6667B0.6667Co0.0Ti1.3333P3O12,8.129335,
Li0.0973B0.0000Co0.0442Ti0.0619P0.1593O0.6372,Li1.8333B0.0Co0.8333Ti1.1667P3O12,8.147218,
Li0.0973B0.0177Co0.0265Ti0.0619P0.1593O0.6372,Li1.8333B0.3333Co0.5Ti1.1667P3O12,8.129335,4.9743144544106
Li0.0893B0.0268Al0.0089Ti0.0714P0.1607O0.6429,Li1.6667B0.5Al0.1667Ti1.3333P3O12,8.129335,11.227731412947826
Li0.0973B0.0442Co0.0000Ti0.0619P0.1593O0.6372,Li1.8333B0.8333Co0.0Ti1.1667P3O12,8.129335,
Li0.1053B0.0000Co0.0526Ti0.0526P0.1579O0.6316,Li2.0B0.0Co1.0Ti1.0P3O12,8.147218,
Li0.1053B0.0088Co0.0439Ti0.0526P0.1579O0.6316,Li2.0B0.1667Co0.8333Ti1.0P3O12,8.147218,2.528594785526306
Li0.1053B0.0175Co0.0351Ti0.0526P0.1579O0.6316,Li2.0B0.3333Co0.6667Ti1.0P3O12,8.129335,4.440738655418738
Li0.1053B0.0263Co0.0263Ti0.0526P0.1579O0.6316,Li2.0B0.5Co0.5Ti1.0P3O12,8.129335,6.432444888838328
Li0.1053B0.0351Mn0.0175Ti0.0526P0.1579O0.6316,Li2.0B0.6667Mn0.3333Ti1.0P3O12,8.129335,11.141010691446938
Li0.1053B0.0351In0.0175Ti0.0526P0.1579O0.6316,Li2.0B0.6667In0.3333Ti1.0P3O12,8.403259,10.833167745401218
Li0.1053B0.0526Co0.0000Ti0.0526P0.1579O0.6316,Li2.0B1.0Co0.0Ti1.0P3O12,8.129335,
Li0.1130B0.0000Co0.0609Ti0.0435P0.1565O0.6261,Li2.1667B0.0Co1.1667Ti0.8333P3O12,8.147218,
Li0.1130B0.0087Co0.0522Ti0.0435P0.1565O0.6261,Li2.1667B0.1667Co1.0Ti0.8333P3O12,8.147218,2.1952938108368603
Li0.1130B0.0261Co0.0348Ti0.0435P0.1565O0.6261,Li2.1667B0.5Co0.6667Ti0.8333P3O12,8.129335,0.04833782120732147
Li0.1130B0.0348Co0.0261Ti0.0435P0.1565O0.6261,Li2.1667B0.6667Co0.5Ti0.8333P3O12,8.129335,0.0708833078178896
Li0.1130B0.0522Co0.0087Ti0.0435P0.1565O0.6261,Li2.1667B1.0Co0.1667Ti0.8333P3O12,8.129335,0.6195030473185252
Li0.1130B0.0609Co0.0000Ti0.0435P0.1565O0.6261,Li2.1667B1.1667Co0.0Ti0.8333P3O12,8.129335,
Li0.1207B0.0000Co0.0690Ti0.0345P0.1552O0.6207,Li2.3333B0.0Co1.3333Ti0.6667P3O12,8.147218,
Li0.1207B0.0172Co0.0517Ti0.0345P0.1552O0.6207,Li2.3333B0.3333Co1.0Ti0.6667P3O12,8.147218,3.7891517108800987
Li0.1207B0.0259Co0.0431Ti0.0345P0.1552O0.6207,Li2.3333B0.5Co0.8333Ti0.6667P3O12,8.147218,0.0360125755179602
Li0.1207B0.0431Co0.0259Ti0.0345P0.1552O0.6207,Li2.3333B0.8333Co0.5Ti0.6667P3O12,8.129335,0.07154400531369032
Li0.1207B0.0517Co0.0172Ti0.0345P0.1552O0.6207,Li2.3333B1.0Co0.3333Ti0.6667P3O12,8.129335,1.0813714168929842
Li0.1207B0.0690Co0.0000Ti0.0345P0.1552O0.6207,Li2.3333B1.3333Co0.0Ti0.6667P3O12,8.129335,
Li0.1282B0.0000Co0.0769Ti0.0256P0.1538O0.6154,Li2.5B0.0Co1.5Ti0.5P3O12,8.147218,
Li0.1282B0.0085Co0.0684Ti0.0256P0.1538O0.6154,Li2.5B0.1667Co1.3333Ti0.5P3O12,8.147218,2.73615203875196
Li0.1282B0.0171Co0.0598Ti0.0256P0.1538O0.6154,Li2.5B0.3333Co1.1667Ti0.5P3O12,8.147218,4.267951347088609
Li0.1282B0.0256Co0.0513Ti0.0256P0.1538O0.6154,Li2.5B0.5Co1.0Ti0.5P3O12,8.147218,5.252908754876673
Li0.1282B0.0342Co0.0427Ti0.0256P0.1538O0.6154,Li2.5B0.6667Co0.8333Ti0.5P3O12,8.147218,0.03702331021815004
Li0.1282B0.0427Co0.0342Ti0.0256P0.1538O0.6154,Li2.5B0.8333Co0.6667Ti0.5P3O12,8.129335,0.0503329426962228
Li0.1282B0.0513Co0.0256Ti0.0256P0.1538O0.6154,Li2.5B1.0Co0.5Ti0.5P3O12,8.129335,1.3914013038847877
Li0.1282B0.0598Co0.0171Ti0.0256P0.1538O0.6154,Li2.5B1.1667Co0.3333Ti0.5P3O12,8.129335,1.1377009690450663
Li0.1282B0.0684Co0.0085Ti0.0256P0.1538O0.6154,Li2.5B1.3333Co0.1667Ti0.5P3O12,8.129335,0.7294073143207647
Li0.1282B0.0769Co0.0000Ti0.0256P0.1538O0.6154,Li2.5B1.5Co0.0Ti0.5P3O12,8.129335,
Li0.1356B0.0000Co0.0847Ti0.0169P0.1525O0.6102,Li2.6667B0.0Co1.6667Ti0.3333P3O12,8.147218,
Li0.1356B0.0085Co0.0763Ti0.0169P0.1525O0.6102,Li2.6667B0.1667Co1.5Ti0.3333P3O12,8.147218,3.3711061431734612
Li0.1356B0.0254Co0.0593Ti0.0169P0.1525O0.6102,Li2.6667B0.5Co1.1667Ti0.3333P3O12,8.147218,6.159386119652187
Li0.0973B0.0177Ga0.0265Ti0.0619P0.1593O0.6372,Li1.8333B0.3333Ga0.5Ti1.1667P3O12,8.099321,10.703586743450284
Li0.1356B0.0508Co0.0339Ti0.0169P0.1525O0.6102,Li2.6667B1.0Co0.6667Ti0.3333P3O12,8.129335,1.7341489209158871
Li0.1356B0.0593Co0.0254Ti0.0169P0.1525O0.6102,Li2.6667B1.1667Co0.5Ti0.3333P3O12,8.129335,1.5037405080790387
Li0.1356B0.0763Co0.0085Ti0.0169P0.1525O0.6102,Li2.6667B1.5Co0.1667Ti0.3333P3O12,8.129335,0.8110272453784164
Li0.1356B0.0847Co0.0000Ti0.0169P0.1525O0.6102,Li2.6667B1.6667Co0.0Ti0.3333P3O12,8.129335,
Li0.1429B0.0000Co0.0924Ti0.0084P0.1513O0.6050,Li2.8333B0.0Co1.8333Ti0.1667P3O12,11.87875,
Li0.1429B0.0168Co0.0756Ti0.0084P0.1513O0.6050,Li2.8333B0.3333Co1.5Ti0.1667P3O12,11.87875,6.672313553416224
Li0.0811B0.0180Fe0.0090Ti0.0811P0.1622O0.6486,Li1.5B0.3333Fe0.1667Ti1.5P3O12,7.750805,10.649616651692162
Li0.0893B0.0268In0.0089Ti0.0714P0.1607O0.6429,Li1.6667B0.5In0.1667Ti1.3333P3O12,8.129335,10.603786086726288
Li0.1429B0.0504Co0.0420Ti0.0084P0.1513O0.6050,Li2.8333B1.0Co0.8333Ti0.1667P3O12,11.87875,2.155372413281336
Li0.1429B0.0672Co0.0252Ti0.0084P0.1513O0.6050,Li2.8333B1.3333Co0.5Ti0.1667P3O12,11.860868,1.7192712861104391
Li0.1429B0.0756Co0.0168Ti0.0084P0.1513O0.6050,Li2.8333B1.5Co0.3333Ti0.1667P3O12,11.860868,1.4232977244124496
Li0.1429B0.0924Co0.0000Ti0.0084P0.1513O0.6050,Li2.8333B1.8333Co0.0Ti0.1667P3O12,11.860868,
Li0.1500B0.0000Co0.1000Ti0.0000P0.1500O0.6000,Li3.0B0.0Co2.0Ti0.0P3O12,15.21023,
Li0.1500B0.0083Co0.0917Ti0.0000P0.1500O0.6000,Li3.0B0.1667Co1.8333Ti0.0P3O12,15.224806,
Li0.1500B0.0167Co0.0833Ti0.0000P0.1500O0.6000,Li3.0B0.3333Co1.6667Ti0.0P3O12,15.224806,
Li0.1500B0.0250Co0.0750Ti0.0000P0.1500O0.6000,Li3.0B0.5Co1.5Ti0.0P3O12,15.224806,
Li0.1500B0.0333Co0.0667Ti0.0000P0.1500O0.6000,Li3.0B0.6667Co1.3333Ti0.0P3O12,15.224806,
Li0.1500B0.0417Co0.0583Ti0.0000P0.1500O0.6000,Li3.0B0.8333Co1.1667Ti0.0P3O12,15.224806,
Li0.1500B0.0500Co0.0500Ti0.0000P0.1500O0.6000,Li3.0B1.0Co1.0Ti0.0P3O12,15.224806,
Li0.1500B0.0583Co0.0417Ti0.0000P0.1500O0.6000,Li3.0B1.1667Co0.8333Ti0.0P3O12,15.224806,
Li0.1500B0.0667Co0.0333Ti0.0000P0.1500O0.6000,Li3.0B1.3333Co0.6667Ti0.0P3O12,15.206924,
Li0.1500B0.0750Co0.0250Ti0.0000P0.1500O0.6000,Li3.0B1.5Co0.5Ti0.0P3O12,15.206924,
Li0.1500B0.0833Co0.0167Ti0.0000P0.1500O0.6000,Li3.0B1.6667Co0.3333Ti0.0P3O12,15.206924,
Li0.1500B0.0917Co0.0083Ti0.0000P0.1500O0.6000,Li3.0B1.8333Co0.1667Ti0.0P3O12,15.206924,
Li0.1500B0.1000Co0.0000Ti0.0000P0.1500O0.6000,Li3.0B2.0Co0.0Ti0.0P3O12,15.206924,
Li0.0556B0.0000Cr0.0000Ti0.1111P0.1667O0.6667,Li1.0B0.0Cr0.0Ti2.0P3O12,7.7087817,
Li0.0642B0.0000Cr0.0092Ti0.1009P0.1651O0.6605,Li1.1667B0.0Cr0.1667Ti1.8333P3O12,7.7087817,
Li0.0642B0.0092Cr0.0000Ti0.1009P0.1651O0.6605,Li1.1667B0.1667Cr0.0Ti1.8333P3O12,7.7087817,
Li0.0727B0.0000Cr0.0182Ti0.0909P0.1636O0.6545,Li1.3333B0.0Cr0.3333Ti1.6667P3O12,7.7087817,
Li0.0727B0.0182Cr0.0000Ti0.0909P0.1636O0.6545,Li1.3333B0.3333Cr0.0Ti1.6667P3O12,7.7087817,
Li0.0811B0.0000Cr0.0270Ti0.0811P0.1622O0.6486,Li1.5B0.0Cr0.5Ti1.5P3O12,7.750805,
Li0.0811B0.0090Cr0.0180Ti0.0811P0.1622O0.6486,Li1.5B0.1667Cr0.3333Ti1.5P3O12,7.750805,1.9877719002971044
Li0.0811B0.0180Cr0.0090Ti0.0811P0.1622O0.6486,Li1.5B0.3333Cr0.1667Ti1.5P3O12,7.750805,4.247188994774857
Li0.0811B0.0270Cr0.0000Ti0.0811P0.1622O0.6486,Li1.5B0.5Cr0.0Ti1.5P3O12,7.750805,
Li0.0893B0.0000Cr0.0357Ti0.0714P0.1607O0.6429,Li1.6667B0.0Cr0.6667Ti1.3333P3O12,8.129335,
Li0.0893B0.0089Cr0.0268Ti0.0714P0.1607O0.6429,Li1.6667B0.1667Cr0.5Ti1.3333P3O12,8.129335,1.6871623604581474
Li0.0893B0.0268Cr0.0089Ti0.0714P0.1607O0.6429,Li1.6667B0.5Cr0.1667Ti1.3333P3O12,8.129335,5.412554121453985
Li0.0893B0.0357Cr0.0000Ti0.0714P0.1607O0.6429,Li1.6667B0.6667Cr0.0Ti1.3333P3O12,8.129335,
Li0.0973B0.0000Cr0.0442Ti0.0619P0.1593O0.6372,Li1.8333B0.0Cr0.8333Ti1.1667P3O12,7.845156,
Li0.0973B0.0177Cr0.0265Ti0.0619P0.1593O0.6372,Li1.8333B0.3333Cr0.5Ti1.1667P3O12,8.129335,2.716071046785662
Li0.0973B0.0265Cr0.0177Ti0.0619P0.1593O0.6372,Li1.8333B0.5Cr0.3333Ti1.1667P3O12,8.129335,4.0933457361731715
Li0.0973B0.0442Cr0.0000Ti0.0619P0.1593O0.6372,Li1.8333B0.8333Cr0.0Ti1.1667P3O12,8.129335,
Li0.1053B0.0000Cr0.0526Ti0.0526P0.1579O0.6316,Li2.0B0.0Cr1.0Ti1.0P3O12,7.845156,
Li0.1053B0.0088Cr0.0439Ti0.0526P0.1579O0.6316,Li2.0B0.1667Cr0.8333Ti1.0P3O12,7.845156,1.4248440953900612
Li0.1053B0.0175Cr0.0351Ti0.0526P0.1579O0.6316,Li2.0B0.3333Cr0.6667Ti1.0P3O12,8.129335,2.4466440239926612
Li0.1053B0.0263Cr0.0263Ti0.0526P0.1579O0.6316,Li2.0B0.5Cr0.5Ti1.0P3O12,8.129335,3.471177315728439
Li0.1053B0.0351Cr0.0175Ti0.0526P0.1579O0.6316,Li2.0B0.6667Cr0.3333Ti1.0P3O12,8.129335,4.781666227774411
Li0.1053B0.0439Cr0.0088Ti0.0526P0.1579O0.6316,Li2.0B0.8333Cr0.1667Ti1.0P3O12,8.129335,6.948461667647528
Li0.1053B0.0526Cr0.0000Ti0.0526P0.1579O0.6316,Li2.0B1.0Cr0.0Ti1.0P3O12,8.129335,
Li0.1130B0.0000Cr0.0609Ti0.0435P0.1565O0.6261,Li2.1667B0.0Cr1.1667Ti0.8333P3O12,13.286617,
Li0.1130B0.0087Cr0.0522Ti0.0435P0.1565O0.6261,Li2.1667B0.1667Cr1.0Ti0.8333P3O12,7.845156,2.123992441893855
Li0.1130B0.0261Cr0.0348Ti0.0435P0.1565O0.6261,Li2.1667B0.5Cr0.6667Ti0.8333P3O12,8.129335,0.08824510658562579
Li0.1130B0.0348Cr0.0261Ti0.0435P0.1565O0.6261,Li2.1667B0.6667Cr0.5Ti0.8333P3O12,8.129335,0.11982402421275193
Li0.1130B0.0522Cr0.0087Ti0.0435P0.1565O0.6261,Li2.1667B1.0Cr0.1667Ti0.8333P3O12,8.129335,0.24759417096258177
Li0.1130B0.0609Cr0.0000Ti0.0435P0.1565O0.6261,Li2.1667B1.1667Cr0.0Ti0.8333P3O12,8.129335,
Li0.1207B0.0000Cr0.0690Ti0.0345P0.1552O0.6207,Li2.3333B0.0Cr1.3333Ti0.6667P3O12,13.286617,
Li0.1207B0.0172Cr0.0517Ti0.0345P0.1552O0.6207,Li2.3333B0.3333Cr1.0Ti0.6667P3O12,7.845156,3.685574496357373
Li0.1207B0.0259Cr0.0431Ti0.0345P0.1552O0.6207,Li2.3333B0.5Cr0.8333Ti0.6667P3O12,7.845156,0.07227384050874469
Li0.1207B0.0431Cr0.0259Ti0.0345P0.1552O0.6207,Li2.3333B0.8333Cr0.5Ti0.6667P3O12,8.129335,0.12316295182044916
Li0.1207B0.0517Cr0.0172Ti0.0345P0.1552O0.6207,Li2.3333B1.0Cr0.3333Ti0.6667P3O12,8.129335,0.48560149151966914
Li0.1207B0.0690Cr0.0000Ti0.0345P0.1552O0.6207,Li2.3333B1.3333Cr0.0Ti0.6667P3O12,8.129335,
Li0.1282B0.0000Cr0.0769Ti0.0256P0.1538O0.6154,Li2.5B0.0Cr1.5Ti0.5P3O12,13.286617,
Li0.1282B0.0085Cr0.0684Ti0.0256P0.1538O0.6154,Li2.5B0.1667Cr1.3333Ti0.5P3O12,13.286617,2.7005592182914313
Li0.1282B0.0171Cr0.0598Ti0.0256P0.1538O0.6154,Li2.5B0.3333Cr1.1667Ti0.5P3O12,7.845156,4.231705033041816
Li0.1282B0.0256Cr0.0513Ti0.0256P0.1538O0.6154,Li2.5B0.5Cr1.0Ti0.5P3O12,7.845156,5.277416954864564
Li0.1282B0.0342Cr0.0427Ti0.0256P0.1538O0.6154,Li2.5B0.6667Cr0.8333Ti0.5P3O12,7.845156,0.07615235703919153
Li0.1282B0.0427Cr0.0342Ti0.0256P0.1538O0.6154,Li2.5B0.8333Cr0.6667Ti0.5P3O12,8.129335,0.09653100417222753
Li0.1282B0.0513Cr0.0256Ti0.0256P0.1538O0.6154,Li2.5B1.0Cr0.5Ti0.5P3O12,8.129335,0.732418333853241
Li0.1282B0.0598Cr0.0171Ti0.0256P0.1538O0.6154,Li2.5B1.1667Cr0.3333Ti0.5P3O12,8.129335,0.5162752753601199
Li0.1282B0.0684Cr0.0085Ti0.0256P0.1538O0.6154,Li2.5B1.3333Cr0.1667Ti0.5P3O12,8.129335,0.28663660876899516
Li0.1282B0.0769Cr0.0000Ti0.0256P0.1538O0.6154,Li2.5B1.5Cr0.0Ti0.5P3O12,8.129335,
Li0.1356B0.0000Cr0.0847Ti0.0169P0.1525O0.6102,Li2.6667B0.0Cr1.6667Ti0.3333P3O12,13.699678,
Li0.1356B0.0085Cr0.0763Ti0.0169P0.1525O0.6102,Li2.6667B0.1667Cr1.5Ti0.3333P3O12,13.286617,3.299400235013848
Li0.1356B0.0254Cr0.0593Ti0.0169P0.1525O0.6102,Li2.6667B0.5Cr1.1667Ti0.3333P3O12,7.845156,6.321968083931295
Li0.1053B0.0175Ga0.0351Ti0.0526P0.1579O0.6316,Li2.0B0.3333Ga0.6667Ti1.0P3O12,8.099321,10.244750474384185
Li0.1356B0.0508Cr0.0339Ti0.0169P0.1525O0.6102,Li2.6667B1.0Cr0.6667Ti0.3333P3O12,8.129335,0.9246288009398249
Li0.1356B0.0593Cr0.0254Ti0.0169P0.1525O0.6102,Li2.6667B1.1667Cr0.5Ti0.3333P3O12,8.129335,0.765159734861778
Li0.1356B0.0763Cr0.0085Ti0.0169P0.1525O0.6102,Li2.6667B1.5Cr0.1667Ti0.3333P3O12,8.129335,0.32439404564491364
Li0.1356B0.0847Cr0.0000Ti0.0169P0.1525O0.6102,Li2.6667B1.6667Cr0.0Ti0.3333P3O12,8.129335,
Li0.1429B0.0000Cr0.0924Ti0.0084P0.1513O0.6050,Li2.8333B0.0Cr1.8333Ti0.1667P3O12,17.431204,
Li0.1429B0.0168Cr0.0756Ti0.0084P0.1513O0.6050,Li2.8333B0.3333Cr1.5Ti0.1667P3O12,17.018145,6.64596676288638
Li0.0973B0.0265Fe0.0177Ti0.0619P0.1593O0.6372,Li1.8333B0.5Fe0.3333Ti1.1667P3O12,8.129335,10.20945236131574
Li0.1429B0.0420Co0.0504Ti0.0084P0.1513O0.6050,Li2.8333B0.8333Co1.0Ti0.1667P3O12,11.87875,10.18716412227883
Li0.1429B0.0504Cr0.0420Ti0.0084P0.1513O0.6050,Li2.8333B1.0Cr0.8333Ti0.1667P3O12,11.576692,1.1343818363526894
Li0.1429B0.0672Cr0.0252Ti0.0084P0.1513O0.6050,Li2.8333B1.3333Cr0.5Ti0.1667P3O12,11.860868,0.8168360302029051
Li0.1429B0.0756Cr0.0168Ti0.0084P0.1513O0.6050,Li2.8333B1.5Cr0.3333Ti0.1667P3O12,11.860868,0.6268976285818992
Li0.1429B0.0924Cr0.0000Ti0.0084P0.1513O0.6050,Li2.8333B1.8333Cr0.0Ti0.1667P3O12,11.860868,
Li0.1500B0.0000Cr0.1000Ti0.0000P0.1500O0.6000,Li3.0B0.0Cr2.0Ti0.0P3O12,17.903326,
Li0.1500B0.0083Cr0.0917Ti0.0000P0.1500O0.6000,Li3.0B0.1667Cr1.8333Ti0.0P3O12,17.903326,
Li0.1500B0.0167Cr0.0833Ti0.0000P0.1500O0.6000,Li3.0B0.3333Cr1.6667Ti0.0P3O12,17.903326,
Li0.1500B0.0250Cr0.0750Ti0.0000P0.1500O0.6000,Li3.0B0.5Cr1.5Ti0.0P3O12,17.490267,
Li0.1500B0.0333Cr0.0667Ti0.0000P0.1500O0.6000,Li3.0B0.6667Cr1.3333Ti0.0P3O12,17.490267,
Li0.1500B0.0417Cr0.0583Ti0.0000P0.1500O0.6000,Li3.0B0.8333Cr1.1667Ti0.0P3O12,14.922748,
Li0.1500B0.0500Cr0.0500Ti0.0000P0.1500O0.6000,Li3.0B1.0Cr1.0Ti0.0P3O12,14.922748,
Li0.1500B0.0583Cr0.0417Ti0.0000P0.1500O0.6000,Li3.0B1.1667Cr0.8333Ti0.0P3O12,14.922748,
Li0.1500B0.0667Cr0.0333Ti0.0000P0.1500O0.6000,Li3.0B1.3333Cr0.6667Ti0.0P3O12,15.206924,
Li0.1500B0.0750Cr0.0250Ti0.0000P0.1500O0.6000,Li3.0B1.5Cr0.5Ti0.0P3O12,15.206924,
Li0.1500B0.0833Cr0.0167Ti0.0000P0.1500O0.6000,Li3.0B1.6667Cr0.3333Ti0.0P3O12,15.206924,
Li0.1500B0.0917Cr0.0083Ti0.0000P0.1500O0.6000,Li3.0B1.8333Cr0.1667Ti0.0P3O12,15.206924,
Li0.1500B0.1000Cr0.0000Ti0.0000P0.1500O0.6000,Li3.0B2.0Cr0.0Ti0.0P3O12,15.206924,
Li0.0556B0.0000Fe0.0000Ti0.1111P0.1667O0.6667,Li1.0B0.0Fe0.0Ti2.0P3O12,7.7087817,