formula,original_formula,thermal_expansion,li ion conductivity
Li0.1500Fe0.0167Hf0.0833Ti0.0000P0.1500O0.6000,Li3.0Fe0.3333Hf1.6667Ti0.0P3O12,15.057993,
Li0.1500Fe0.0250Hf0.0750Ti0.0000P0.1500O0.6000,Li3.0Fe0.5Hf1.5Ti0.0P3O12,13.192705,
Li0.1500Fe0.0333Hf0.0667Ti0.0000P0.1500O0.6000,Li3.0Fe0.6667Hf1.3333Ti0.0P3O12,13.192705,
Li0.1500Fe0.0417Hf0.0583Ti0.0000P0.1500O0.6000,Li3.0Fe0.8333Hf1.1667Ti0.0P3O12,13.258319,
Li0.1500Fe0.0500Hf0.0500Ti0.0000P0.1500O0.6000,Li3.0Fe1.0Hf1.0Ti0.0P3O12,13.258319,
Li0.1500Fe0.0583Hf0.0417Ti0.0000P0.1500O0.6000,Li3.0Fe1.1667Hf0.8333Ti0.0P3O12,13.326101,
Li0.1500Fe0.0667Hf0.0333Ti0.0000P0.1500O0.6000,Li3.0Fe1.3333Hf0.6667Ti0.0P3O12,13.326101,
Li0.1500Fe0.0750Hf0.0250Ti0.0000P0.1500O0.6000,Li3.0Fe1.5Hf0.5Ti0.0P3O12,13.332053,
Li0.1500Fe0.0833Hf0.0167Ti0.0000P0.1500O0.6000,Li3.0Fe1.6667Hf0.3333Ti0.0P3O12,13.332053,
Li0.1500Fe0.0917Hf0.0083Ti0.0000P0.1500O0.6000,Li3.0Fe1.8333Hf0.1667Ti0.0P3O12,13.332053,
Li0.1500Fe0.1000Hf0.0000Ti0.0000P0.1500O0.6000,Li3.0Fe2.0Hf0.0Ti0.0P3O12,13.206304,
Li0.0556Fe0.0000Bi0.0000Ti0.1111P0.1667O0.6667,Li1.0Fe0.0Bi0.0Ti2.0P3O12,7.7087817,
Li0.0642Fe0.0000Bi0.0092Ti0.1009P0.1651O0.6605,Li1.1667Fe0.0Bi0.1667Ti1.8333P3O12,7.7087817,
Li0.0642Fe0.0092Bi0.0000Ti0.1009P0.1651O0.6605,Li1.1667Fe0.1667Bi0.0Ti1.8333P3O12,7.7087817,
Li0.0727Fe0.0000Bi0.0182Ti0.0909P0.1636O0.6545,Li1.3333Fe0.0Bi0.3333Ti1.6667P3O12,7.7087817,
Li0.0727Fe0.0182Bi0.0000Ti0.0909P0.1636O0.6545,Li1.3333Fe0.3333Bi0.0Ti1.6667P3O12,7.7087817,
Li0.0811Fe0.0000Bi0.0270Ti0.0811P0.1622O0.6486,Li1.5Fe0.0Bi0.5Ti1.5P3O12,7.750805,
Li0.0811Fe0.0090Bi0.0180Ti0.0811P0.1622O0.6486,Li1.5Fe0.1667Bi0.3333Ti1.5P3O12,7.750805,0.003815634887334094
Li0.0811Fe0.0180Bi0.0090Ti0.0811P0.1622O0.6486,Li1.5Fe0.3333Bi0.1667Ti1.5P3O12,7.750805,0.005555709537992995
Li0.0811Fe0.0270Bi0.0000Ti0.0811P0.1622O0.6486,Li1.5Fe0.5Bi0.0Ti1.5P3O12,6.671572,
Li0.0893Fe0.0000Bi0.0357Ti0.0714P0.1607O0.6429,Li1.6667Fe0.0Bi0.6667Ti1.3333P3O12,8.129335,
Li0.0893Fe0.0089Bi0.0268Ti0.0714P0.1607O0.6429,Li1.6667Fe0.1667Bi0.5Ti1.3333P3O12,8.129335,0.003519624976938388
Li0.0893Fe0.0268Bi0.0089Ti0.0714P0.1607O0.6429,Li1.6667Fe0.5Bi0.1667Ti1.3333P3O12,7.0501,0.006035351811821886
Li0.0893Fe0.0357Bi0.0000Ti0.0714P0.1607O0.6429,Li1.6667Fe0.6667Bi0.0Ti1.3333P3O12,7.0501,
Li0.0973Fe0.0000Bi0.0442Ti0.0619P0.1593O0.6372,Li1.8333Fe0.0Bi0.8333Ti1.1667P3O12,8.129335,
Li0.0973Fe0.0177Bi0.0265Ti0.0619P0.1593O0.6372,Li1.8333Fe0.3333Bi0.5Ti1.1667P3O12,8.129335,0.00449741211035315
Li0.0973Fe0.0265Bi0.0177Ti0.0619P0.1593O0.6372,Li1.8333Fe0.5Bi0.3333Ti1.1667P3O12,7.0501,0.005216859421930061
Li0.0973Fe0.0442Bi0.0000Ti0.0619P0.1593O0.6372,Li1.8333Fe0.8333Bi0.0Ti1.1667P3O12,6.972733,
Li0.1053Fe0.0000Bi0.0526Ti0.0526P0.1579O0.6316,Li2.0Fe0.0Bi1.0Ti1.0P3O12,8.129335,
Li0.1053Fe0.0088Bi0.0439Ti0.0526P0.1579O0.6316,Li2.0Fe0.1667Bi0.8333Ti1.0P3O12,8.129335,0.0031686239828807236
Li0.1053Fe0.0175Bi0.0351Ti0.0526P0.1579O0.6316,Li2.0Fe0.3333Bi0.6667Ti1.0P3O12,8.129335,0.004211273912386636
Li0.1053Fe0.0263Bi0.0263Ti0.0526P0.1579O0.6316,Li2.0Fe0.5Bi0.5Ti1.0P3O12,7.0501,0.004869514854600575
Li0.1053Fe0.0351Bi0.0175Ti0.0526P0.1579O0.6316,Li2.0Fe0.6667Bi0.3333Ti1.0P3O12,7.0501,0.005625006439973543
Li0.1053Fe0.0439Bi0.0088Ti0.0526P0.1579O0.6316,Li2.0Fe0.8333Bi0.1667Ti1.0P3O12,6.972733,0.007179597241040579
Li0.1053Fe0.0526Bi0.0000Ti0.0526P0.1579O0.6316,Li2.0Fe1.0Bi0.0Ti1.0P3O12,7.040515,
Li0.1130Fe0.0000Bi0.0609Ti0.0435P0.1565O0.6261,Li2.1667Fe0.0Bi1.1667Ti0.8333P3O12,8.129335,
Li0.1130Fe0.0087Bi0.0522Ti0.0435P0.1565O0.6261,Li2.1667Fe0.1667Bi1.0Ti0.8333P3O12,8.129335,0.040047841829068065
Li0.1130Fe0.0261Bi0.0348Ti0.0435P0.1565O0.6261,Li2.1667Fe0.5Bi0.6667Ti0.8333P3O12,7.0501,8.38753854528245e-05
Li0.1130Fe0.0348Bi0.0261Ti0.0435P0.1565O0.6261,Li2.1667Fe0.6667Bi0.5Ti0.8333P3O12,7.0501,8.266001047858025e-05
Li0.1130Fe0.0522Bi0.0087Ti0.0435P0.1565O0.6261,Li2.1667Fe1.0Bi0.1667Ti0.8333P3O12,6.972733,0.09585716997145875
Li0.1130Fe0.0609Bi0.0000Ti0.0435P0.1565O0.6261,Li2.1667Fe1.1667Bi0.0Ti0.8333P3O12,7.040515,
Li0.1207Fe0.0000Bi0.0690Ti0.0345P0.1552O0.6207,Li2.3333Fe0.0Bi1.3333Ti0.6667P3O12,8.129335,
Li0.1207Fe0.0172Bi0.0517Ti0.0345P0.1552O0.6207,Li2.3333Fe0.3333Bi1.0Ti0.6667P3O12,8.129335,0.04392913452035764
Li0.1207Fe0.0259Bi0.0431Ti0.0345P0.1552O0.6207,Li2.3333Fe0.5Bi0.8333Ti0.6667P3O12,7.0501,6.832017183578094e-05
Li0.1207Fe0.0431Bi0.0259Ti0.0345P0.1552O0.6207,Li2.3333Fe0.8333Bi0.5Ti0.6667P3O12,6.972733,6.479444033822873e-05
Li0.1207Fe0.0517Bi0.0172Ti0.0345P0.1552O0.6207,Li2.3333Fe1.0Bi0.3333Ti0.6667P3O12,6.972733,0.12732123336665435
Li0.1207Fe0.0690Bi0.0000Ti0.0345P0.1552O0.6207,Li2.3333Fe1.3333Bi0.0Ti0.6667P3O12,7.040515,
Li0.1282Fe0.0000Bi0.0769Ti0.0256P0.1538O0.6154,Li2.5Fe0.0Bi1.5Ti0.5P3O12,8.129335,
Li0.1282Fe0.0085Bi0.0684Ti0.0256P0.1538O0.6154,Li2.5Fe0.1667Bi1.3333Ti0.5P3O12,8.129335,0.04337775914444437
Li0.1282Fe0.0171Bi0.0598Ti0.0256P0.1538O0.6154,Li2.5Fe0.3333Bi1.1667Ti0.5P3O12,8.129335,0.047099527247180924
Li0.1282Fe0.0256Bi0.0513Ti0.0256P0.1538O0.6154,Li2.5Fe0.5Bi1.0Ti0.5P3O12,7.0501,0.04797911224741834
Li0.1282Fe0.0342Bi0.0427Ti0.0256P0.1538O0.6154,Li2.5Fe0.6667Bi0.8333Ti0.5P3O12,7.0501,5.039039410487413e-05
Li0.1282Fe0.0427Bi0.0342Ti0.0256P0.1538O0.6154,Li2.5Fe0.8333Bi0.6667Ti0.5P3O12,6.972733,4.853501665609649e-05
Li0.1282Fe0.0513Bi0.0256Ti0.0256P0.1538O0.6154,Li2.5Fe1.0Bi0.5Ti0.5P3O12,6.972733,0.15904829799376757
Li0.1282Fe0.0598Bi0.0171Ti0.0256P0.1538O0.6154,Li2.5Fe1.1667Bi0.3333Ti0.5P3O12,7.040515,0.1360328716187734
Li0.1282Fe0.0684Bi0.0085Ti0.0256P0.1538O0.6154,Li2.5Fe1.3333Bi0.1667Ti0.5P3O12,7.040515,0.10801414791595017
Li0.1282Fe0.0769Bi0.0000Ti0.0256P0.1538O0.6154,Li2.5Fe1.5Bi0.0Ti0.5P3O12,7.040515,
Li0.1356Fe0.0000Bi0.0847Ti0.0169P0.1525O0.6102,Li2.6667Fe0.0Bi1.6667Ti0.3333P3O12,8.129335,
Li0.1356Fe0.0085Bi0.0763Ti0.0169P0.1525O0.6102,Li2.6667Fe0.1667Bi1.5Ti0.3333P3O12,8.129335,0.04657141473240068
Li0.1356Fe0.0254Bi0.0593Ti0.0169P0.1525O0.6102,Li2.6667Fe0.5Bi1.1667Ti0.3333P3O12,7.0501,0.05171441342178462
Li0.1356Fe0.0339Bi0.0508Ti0.0169P0.1525O0.6102,Li2.6667Fe0.6667Bi1.0Ti0.3333P3O12,7.0501,0.05234358776595544
Li0.1356Fe0.0508Bi0.0339Ti0.0169P0.1525O0.6102,Li2.6667Fe1.0Bi0.6667Ti0.3333P3O12,6.972733,0.18995595195416712
Li0.1356Fe0.0593Bi0.0254Ti0.0169P0.1525O0.6102,Li2.6667Fe1.1667Bi0.5Ti0.3333P3O12,7.040515,0.17099572701024424
Li0.1356Fe0.0763Bi0.0085Ti0.0169P0.1525O0.6102,Li2.6667Fe1.5Bi0.1667Ti0.3333P3O12,7.040515,0.11696941530357048
Li0.1356Fe0.0847Bi0.0000Ti0.0169P0.1525O0.6102,Li2.6667Fe1.6667Bi0.0Ti0.3333P3O12,7.040515,
Li0.1429Fe0.0000Bi0.0924Ti0.0084P0.1513O0.6050,Li2.8333Fe0.0Bi1.8333Ti0.1667P3O12,11.860868,
Li0.1429Fe0.0168Bi0.0756Ti0.0084P0.1513O0.6050,Li2.8333Fe0.3333Bi1.5Ti0.1667P3O12,11.860868,0.05422356656713734
Li0.1429Fe0.0252Bi0.0672Ti0.0084P0.1513O0.6050,Li2.8333Fe0.5Bi1.3333Ti0.1667P3O12,10.781635,0.05412316422422042
Li0.1429Fe0.0420Bi0.0504Ti0.0084P0.1513O0.6050,Li2.8333Fe0.8333Bi1.0Ti0.1667P3O12,10.704269,0.06128140587245921
Li0.1429Fe0.0504Bi0.0420Ti0.0084P0.1513O0.6050,Li2.8333Fe1.0Bi0.8333Ti0.1667P3O12,10.704269,0.22917035790296547
Li0.1429Fe0.0672Bi0.0252Ti0.0084P0.1513O0.6050,Li2.8333Fe1.3333Bi0.5Ti0.1667P3O12,10.772052,0.19183917054507477
Li0.1429Fe0.0756Bi0.0168Ti0.0084P0.1513O0.6050,Li2.8333Fe1.5Bi0.3333Ti0.1667P3O12,10.772052,0.16619191915048653
Li0.1429Fe0.0924Bi0.0000Ti0.0084P0.1513O0.6050,Li2.8333Fe1.8333Bi0.0Ti0.1667P3O12,10.772052,
Li0.1500Fe0.0000Bi0.1000Ti0.0000P0.1500O0.6000,Li3.0Fe0.0Bi2.0Ti0.0P3O12,14.981435,
Li0.1500Fe0.0083Bi0.0917Ti0.0000P0.1500O0.6000,Li3.0Fe0.1667Bi1.8333Ti0.0P3O12,15.206924,
Li0.1500Fe0.0167Bi0.0833Ti0.0000P0.1500O0.6000,Li3.0Fe0.3333Bi1.6667Ti0.0P3O12,15.206924,
Li0.1500Fe0.0250Bi0.0750Ti0.0000P0.1500O0.6000,Li3.0Fe0.5Bi1.5Ti0.0P3O12,13.341637,
Li0.1500Fe0.0333Bi0.0667Ti0.0000P0.1500O0.6000,Li3.0Fe0.6667Bi1.3333Ti0.0P3O12,13.341637,
Li0.1500Fe0.0417Bi0.0583Ti0.0000P0.1500O0.6000,Li3.0Fe0.8333Bi1.1667Ti0.0P3O12,13.264271,
Li0.1500Fe0.0500Bi0.0500Ti0.0000P0.1500O0.6000,Li3.0Fe1.0Bi1.0Ti0.0P3O12,13.264271,
Li0.1500Fe0.0583Bi0.0417Ti0.0000P0.1500O0.6000,Li3.0Fe1.1667Bi0.8333Ti0.0P3O12,13.332053,
Li0.1500Fe0.0667Bi0.0333Ti0.0000P0.1500O0.6000,Li3.0Fe1.3333Bi0.6667Ti0.0P3O12,13.332053,
Li0.1500Fe0.0750Bi0.0250Ti0.0000P0.1500O0.6000,Li3.0Fe1.5Bi0.5Ti0.0P3O12,13.332053,
Li0.1500Fe0.0833Bi0.0167Ti0.0000P0.1500O0.6000,Li3.0Fe1.6667Bi0.3333Ti0.0P3O12,13.332053,
Li0.1500Fe0.0917Bi0.0083Ti0.0000P0.1500O0.6000,Li3.0Fe1.8333Bi0.1667Ti0.0P3O12,13.332053,
Li0.1500Fe0.1000Bi0.0000Ti0.0000P0.1500O0.6000,Li3.0Fe2.0Bi0.0Ti0.0P3O12,13.206304,
Li0.0556Ga0.0000Al0.0000Ti0.1111P0.1667O0.6667,Li1.0Ga0.0Al0.0Ti2.0P3O12,7.7087817,
Li0.0642Ga0.0000Al0.0092Ti0.1009P0.1651O0.6605,Li1.1667Ga0.0Al0.1667Ti1.8333P3O12,7.7087817,
Li0.0642Ga0.0092Al0.0000Ti0.1009P0.1651O0.6605,Li1.1667Ga0.1667Al0.0Ti1.8333P3O12,7.7087817,
Li0.0727Ga0.0000Al0.0182Ti0.0909P0.1636O0.6545,Li1.3333Ga0.0Al0.3333Ti1.6667P3O12,9.113234,
Li0.0727Ga0.0182Al0.0000Ti0.0909P0.1636O0.6545,Li1.3333Ga0.3333Al0.0Ti1.6667P3O12,7.678768,
Li0.0811Ga0.0000Al0.0270Ti0.0811P0.1622O0.6486,Li1.5Ga0.0Al0.5Ti1.5P3O12,9.155256,
Li0.0811Ga0.0090Al0.0180Ti0.0811P0.1622O0.6486,Li1.5Ga0.1667Al0.3333Ti1.5P3O12,9.155256,0.1885680504288017
Li0.0811Ga0.0180Al0.0090Ti0.0811P0.1622O0.6486,Li1.5Ga0.3333Al0.1667Ti1.5P3O12,7.7207913,0.319255735351436
Li0.0811Ga0.0270Al0.0000Ti0.0811P0.1622O0.6486,Li1.5Ga0.5Al0.0Ti1.5P3O12,7.7207913,
Li0.0893Ga0.0000Al0.0357Ti0.0714P0.1607O0.6429,Li1.6667Ga0.0Al0.6667Ti1.3333P3O12,9.533785,
Li0.0893Ga0.0089Al0.0268Ti0.0714P0.1607O0.6429,Li1.6667Ga0.1667Al0.5Ti1.3333P3O12,9.533785,0.16038674957794774
Li0.0893Ga0.0268Al0.0089Ti0.0714P0.1607O0.6429,Li1.6667Ga0.5Al0.1667Ti1.3333P3O12,8.099321,0.3540525576125864
Li0.0893Ga0.0357Al0.0000Ti0.0714P0.1607O0.6429,Li1.6667Ga0.6667Al0.0Ti1.3333P3O12,8.099321,
Li0.0973Ga0.0000Al0.0442Ti0.0619P0.1593O0.6372,Li1.8333Ga0.0Al0.8333Ti1.1667P3O12,9.533785,
Li0.0973Ga0.0177Al0.0265Ti0.0619P0.1593O0.6372,Li1.8333Ga0.3333Al0.5Ti1.1667P3O12,9.476832,0.19063248316603656
Li0.0973Ga0.0265Al0.0177Ti0.0619P0.1593O0.6372,Li1.8333Ga0.5Al0.3333Ti1.1667P3O12,9.476832,0.2582914854856004
Li0.0973Ga0.0442Al0.0000Ti0.0619P0.1593O0.6372,Li1.8333Ga0.8333Al0.0Ti1.1667P3O12,8.099321,
Li0.1053Ga0.0000Al0.0526Ti0.0526P0.1579O0.6316,Li2.0Ga0.0Al1.0Ti1.0P3O12,9.533785,
Li0.1053Ga0.0088Al0.0439Ti0.0526P0.1579O0.6316,Li2.0Ga0.1667Al0.8333Ti1.0P3O12,9.533785,0.1250059664258687
Li0.1053Ga0.0175Al0.0351Ti0.0526P0.1579O0.6316,Li2.0Ga0.3333Al0.6667Ti1.0P3O12,9.476832,0.16250186325984511
Li0.1053Ga0.0263Al0.0263Ti0.0526P0.1579O0.6316,Li2.0Ga0.5Al0.5Ti1.0P3O12,9.476832,0.21156658843313011
Li0.1053Ga0.0351Al0.0175Ti0.0526P0.1579O0.6316,Li2.0Ga0.6667Al0.3333Ti1.0P3O12,8.099321,0.276375152357104
Li0.1053Ga0.0439Al0.0088Ti0.0526P0.1579O0.6316,Li2.0Ga0.8333Al0.1667Ti1.0P3O12,8.099321,0.3937876131530948
Li0.1053Ga0.0526Al0.0000Ti0.0526P0.1579O0.6316,Li2.0Ga1.0Al0.0Ti1.0P3O12,8.099321,
Li0.1130Ga0.0000Al0.0609Ti0.0435P0.1565O0.6261,Li2.1667Ga0.0Al1.1667Ti0.8333P3O12,9.286814,
Li0.1130Ga0.0087Al0.0522Ti0.0435P0.1565O0.6261,Li2.1667Ga0.1667Al1.0Ti0.8333P3O12,9.533785,0.00011806771464947906
Li0.1130Ga0.0261Al0.0348Ti0.0435P0.1565O0.6261,Li2.1667Ga0.5Al0.6667Ti0.8333P3O12,9.476832,0.00012056456207400143
Li0.1130Ga0.0348Al0.0261Ti0.0435P0.1565O0.6261,Li2.1667Ga0.6667Al0.5Ti0.8333P3O12,9.476832,0.00020083362072481484
Li0.1130Ga0.0522Al0.0087Ti0.0435P0.1565O0.6261,Li2.1667Ga1.0Al0.1667Ti0.8333P3O12,8.099321,0.03977754584948856
Li0.1130Ga0.0609Al0.0000Ti0.0435P0.1565O0.6261,Li2.1667Ga1.1667Al0.0Ti0.8333P3O12,6.7658024,
Li0.1207Ga0.0000Al0.0690Ti0.0345P0.1552O0.6207,Li2.3333Ga0.0Al1.3333Ti0.6667P3O12,9.286814,
Li0.1207Ga0.0172Al0.0517Ti0.0345P0.1552O0.6207,Li2.3333Ga0.3333Al1.0Ti0.6667P3O12,9.476832,0.00011945090514891488
Li0.1207Ga0.0259Al0.0431Ti0.0345P0.1552O0.6207,Li2.3333Ga0.5Al0.8333Ti0.6667P3O12,9.476832,7.595528786143246e-05
Li0.1207Ga0.0431Al0.0259Ti0.0345P0.1552O0.6207,Li2.3333Ga0.8333Al0.5Ti0.6667P3O12,9.476832,0.00019610861882491756
Li0.1207Ga0.0517Al0.0172Ti0.0345P0.1552O0.6207,Li2.3333Ga1.0Al0.3333Ti0.6667P3O12,8.099321,0.11788500818961223
Li0.1207Ga0.0690Al0.0000Ti0.0345P0.1552O0.6207,Li2.3333Ga1.3333Al0.0Ti0.6667P3O12,6.7658024,
Li0.1282Ga0.0000Al0.0769Ti0.0256P0.1538O0.6154,Li2.5Ga0.0Al1.5Ti0.5P3O12,9.286814,
Li0.1282Ga0.0085Al0.0684Ti0.0256P0.1538O0.6154,Li2.5Ga0.1667Al1.3333Ti0.5P3O12,9.286814,0.00016558094352829426
Li0.1282Ga0.0171Al0.0598Ti0.0256P0.1538O0.6154,Li2.5Ga0.3333Al1.1667Ti0.5P3O12,9.301199,0.00015251896869754165
Li0.1282Ga0.0256Al0.0513Ti0.0256P0.1538O0.6154,Li2.5Ga0.5Al1.0Ti0.5P3O12,9.476832,0.00015785432773098837
Li0.1282Ga0.0342Al0.0427Ti0.0256P0.1538O0.6154,Li2.5Ga0.6667Al0.8333Ti0.5P3O12,9.476832,7.25170709313774e-05
Li0.1282Ga0.0427Al0.0342Ti0.0256P0.1538O0.6154,Li2.5Ga0.8333Al0.6667Ti0.5P3O12,9.476832,0.00011276011107394373
Li0.1282Ga0.0513Al0.0256Ti0.0256P0.1538O0.6154,Li2.5Ga1.0Al0.5Ti0.5P3O12,9.476832,0.22275596475290485
Li0.1282Ga0.0598Al0.0171Ti0.0256P0.1538O0.6154,Li2.5Ga1.1667Al0.3333Ti0.5P3O12,6.7658024,0.14831221123923877
Li0.1282Ga0.0684Al0.0085Ti0.0256P0.1538O0.6154,Li2.5Ga1.3333Al0.1667Ti0.5P3O12,6.7658024,0.05661612976400067
Li0.1282Ga0.0769Al0.0000Ti0.0256P0.1538O0.6154,Li2.5Ga1.5Al0.0Ti0.5P3O12,6.7658024,
Li0.1356Ga0.0000Al0.0847Ti0.0169P0.1525O0.6102,Li2.6667Ga0.0Al1.6667Ti0.3333P3O12,9.286814,
Li0.1356Ga0.0085Al0.0763Ti0.0169P0.1525O0.6102,Li2.6667Ga0.1667Al1.5Ti0.3333P3O12,9.286814,0.00025867646656703956
Li0.1356Ga0.0254Al0.0593Ti0.0169P0.1525O0.6102,Li2.6667Ga0.5Al1.1667Ti0.3333P3O12,9.301199,0.00025378428271029794
Li0.1356Ga0.0339Al0.0508Ti0.0169P0.1525O0.6102,Li2.6667Ga0.6667Al1.0Ti0.3333P3O12,9.476832,0.00027366582895892627
Li0.1356Ga0.0508Al0.0339Ti0.0169P0.1525O0.6102,Li2.6667Ga1.0Al0.6667Ti0.3333P3O12,9.476832,0.35147920061919474
Li0.1356Ga0.0593Al0.0254Ti0.0169P0.1525O0.6102,Li2.6667Ga1.1667Al0.5Ti0.3333P3O12,8.143311,0.29039273964542
Li0.1356Ga0.0763Al0.0085Ti0.0169P0.1525O0.6102,Li2.6667Ga1.5Al0.1667Ti0.3333P3O12,6.7658024,0.08235273442897588
Li0.1356Ga0.0847Al0.0000Ti0.0169P0.1525O0.6102,Li2.6667Ga1.6667Al0.0Ti0.3333P3O12,6.7658024,
Li0.1429Ga0.0000Al0.0924Ti0.0084P0.1513O0.6050,Li2.8333Ga0.0Al1.8333Ti0.1667P3O12,13.018343,
Li0.1429Ga0.0168Al0.0756Ti0.0084P0.1513O0.6050,Li2.8333Ga0.3333Al1.5Ti0.1667P3O12,13.032728,0.00059760720517466
Li0.1429Ga0.0252Al0.0672Ti0.0084P0.1513O0.6050,Li2.8333Ga0.5Al1.3333Ti0.1667P3O12,13.032728,0.0006201335630557619
Li0.1429Ga0.0420Al0.0504Ti0.0084P0.1513O0.6050,Li2.8333Ga0.8333Al1.0Ti0.1667P3O12,13.208362,0.0007489989364185094
Li0.1429Ga0.0504Al0.0420Ti0.0084P0.1513O0.6050,Li2.8333Ga1.0Al0.8333Ti0.1667P3O12,13.208362,0.6032201704157778
Li0.1429Ga0.0672Al0.0252Ti0.0084P0.1513O0.6050,Li2.8333Ga1.3333Al0.5Ti0.1667P3O12,11.874846,0.44501221811823727
Li0.1429Ga0.0756Al0.0168Ti0.0084P0.1513O0.6050,Li2.8333Ga1.5Al0.3333Ti0.1667P3O12,10.497339,0.3172984444612287
Li0.1429Ga0.0924Al0.0000Ti0.0084P0.1513O0.6050,Li2.8333Ga1.8333Al0.0Ti0.1667P3O12,10.497339,
Li0.1500Ga0.0000Al0.1000Ti0.0000P0.1500O0.6000,Li3.0Ga0.0Al2.0Ti0.0P3O12,15.867943,
Li0.1500Ga0.0083Al0.0917Ti0.0000P0.1500O0.6000,Li3.0Ga0.1667Al1.8333Ti0.0P3O12,15.070612,
Li0.1500Ga0.0167Al0.0833Ti0.0000P0.1500O0.6000,Li3.0Ga0.3333Al1.6667Ti0.0P3O12,15.084997,
Li0.1500Ga0.0250Al0.0750Ti0.0000P0.1500O0.6000,Li3.0Ga0.5Al1.5Ti0.0P3O12,15.084997,
Li0.1500Ga0.0333Al0.0667Ti0.0000P0.1500O0.6000,Li3.0Ga0.6667Al1.3333Ti0.0P3O12,15.084997,
Li0.1500Ga0.0417Al0.0583Ti0.0000P0.1500O0.6000,Li3.0Ga0.8333Al1.1667Ti0.0P3O12,15.26063,
Li0.1500Ga0.0500Al0.0500Ti0.0000P0.1500O0.6000,Li3.0Ga1.0Al1.0Ti0.0P3O12,15.26063,
Li0.1500Ga0.0583Al0.0417Ti0.0000P0.1500O0.6000,Li3.0Ga1.1667Al0.8333Ti0.0P3O12,15.26063,
Li0.1500Ga0.0667Al0.0333Ti0.0000P0.1500O0.6000,Li3.0Ga1.3333Al0.6667Ti0.0P3O12,13.9271145,
Li0.1500Ga0.0750Al0.0250Ti0.0000P0.1500O0.6000,Li3.0Ga1.5Al0.5Ti0.0P3O12,13.9271145,
Li0.1500Ga0.0833Al0.0167Ti0.0000P0.1500O0.6000,Li3.0Ga1.6667Al0.3333Ti0.0P3O12,13.843395,
Li0.1500Ga0.0917Al0.0083Ti0.0000P0.1500O0.6000,Li3.0Ga1.8333Al0.1667Ti0.0P3O12,13.843395,
Li0.1500Ga0.1000Al0.0000Ti0.0000P0.1500O0.6000,Li3.0Ga2.0Al0.0Ti0.0P3O12,13.755412,
Li0.0556Ga0.0000As0.0000Ti0.1111P0.1667O0.6667,Li1.0Ga0.0As0.0Ti2.0P3O12,7.7087817,
Li0.0642Ga0.0000As0.0092Ti0.1009P0.1651O0.6605,Li1.1667Ga0.0As0.1667Ti1.8333P3O12,7.7087817,
Li0.0642Ga0.0092As0.0000Ti0.1009P0.1651O0.6605,Li1.1667Ga0.1667As0.0Ti1.8333P3O12,7.7087817,
Li0.0727Ga0.0000As0.0182Ti0.0909P0.1636O0.6545,Li1.3333Ga0.0As0.3333Ti1.6667P3O12,7.7087817,
Li0.0727Ga0.0182As0.0000Ti0.0909P0.1636O0.6545,Li1.3333Ga0.3333As0.0Ti1.6667P3O12,7.678768,
Li0.0811Ga0.0000As0.0270Ti0.0811P0.1622O0.6486,Li1.5Ga0.0As0.5Ti1.5P3O12,7.750805,
Li0.0811Ga0.0090As0.0180Ti0.0811P0.1622O0.6486,Li1.5Ga0.1667As0.3333Ti1.5P3O12,7.750805,0.05041574010132928
Li0.0811Ga0.0180As0.0090Ti0.0811P0.1622O0.6486,Li1.5Ga0.3333As0.1667Ti1.5P3O12,7.7207913,0.07945839877170606
Li0.0811Ga0.0270As0.0000Ti0.0811P0.1622O0.6486,Li1.5Ga0.5As0.0Ti1.5P3O12,7.7207913,
Li0.0893Ga0.0000As0.0357Ti0.0714P0.1607O0.6429,Li1.6667Ga0.0As0.6667Ti1.3333P3O12,8.129335,
Li0.0893Ga0.0089As0.0268Ti0.0714P0.1607O0.6429,Li1.6667Ga0.1667As0.5Ti1.3333P3O12,8.129335,0.030149557954320907
Li0.0893Ga0.0268As0.0089Ti0.0714P0.1607O0.6429,Li1.6667Ga0.5As0.1667Ti1.3333P3O12,8.099321,0.06306930409120105
Li0.0893Ga0.0357As0.0000Ti0.0714P0.1607O0.6429,Li1.6667Ga0.6667As0.0Ti1.3333P3O12,8.099321,
Li0.0973Ga0.0000As0.0442Ti0.0619P0.1593O0.6372,Li1.8333Ga0.0As0.8333Ti1.1667P3O12,8.129335,
Li0.0973Ga0.0177As0.0265Ti0.0619P0.1593O0.6372,Li1.8333Ga0.3333As0.5Ti1.1667P3O12,8.099321,0.01746445650853915
Li0.0973Ga0.0265As0.0177Ti0.0619P0.1593O0.6372,Li1.8333Ga0.5As0.3333Ti1.1667P3O12,8.099321,0.023201939605904467
Li0.0973Ga0.0442As0.0000Ti0.0619P0.1593O0.6372,Li1.8333Ga0.8333As0.0Ti1.1667P3O12,8.099321,
Li0.1053Ga0.0000As0.0526Ti0.0526P0.1579O0.6316,Li2.0Ga0.0As1.0Ti1.0P3O12,8.129335,
Li0.1053Ga0.0088As0.0439Ti0.0526P0.1579O0.6316,Li2.0Ga0.1667As0.8333Ti1.0P3O12,8.129335,0.012798909434646968
Li0.1053Ga0.0175As0.0351Ti0.0526P0.1579O0.6316,Li2.0Ga0.3333As0.6667Ti1.0P3O12,8.099321,0.010644969758977479
Li0.1053Ga0.0263As0.0263Ti0.0526P0.1579O0.6316,Li2.0Ga0.5As0.5Ti1.0P3O12,8.099321,0.011367800936989617
Li0.1053Ga0.0351As0.0175Ti0.0526P0.1579O0.6316,Li2.0Ga0.6667As0.3333Ti1.0P3O12,8.099321,0.01718933422591571
Li0.1053Ga0.0439As0.0088Ti0.0526P0.1579O0.6316,Li2.0Ga0.8333As0.1667Ti1.0P3O12,8.099321,0.04013420558603958
Li0.1053Ga0.0526As0.0000Ti0.0526P0.1579O0.6316,Li2.0Ga1.0As0.0Ti1.0P3O12,8.099321,
Li0.1130Ga0.0000As0.0609Ti0.0435P0.1565O0.6261,Li2.1667Ga0.0As1.1667Ti0.8333P3O12,8.129335,
Li0.1130Ga0.0087As0.0522Ti0.0435P0.1565O0.6261,Li2.1667Ga0.1667As1.0Ti0.8333P3O12,8.129335,0.00020222096895123028
Li0.1130Ga0.0261As0.0348Ti0.0435P0.1565O0.6261,Li2.1667Ga0.5As0.6667Ti0.8333P3O12,8.099321,2.0264816242696314e-08
Li0.1130Ga0.0348As0.0261Ti0.0435P0.1565O0.6261,Li2.1667Ga0.6667As0.5Ti0.8333P3O12,8.099321,3.4084768604843877e-08
Li0.1130Ga0.0522As0.0087Ti0.0435P0.1565O0.6261,Li2.1667Ga1.0As0.1667Ti0.8333P3O12,8.099321,0.04422472784695726
Li0.1130Ga0.0609As0.0000Ti0.0435P0.1565O0.6261,Li2.1667Ga1.1667As0.0Ti0.8333P3O12,6.7658024,
Li0.1207Ga0.0000As0.0690Ti0.0345P0.1552O0.6207,Li2.3333Ga0.0As1.3333Ti0.6667P3O12,8.129335,
Li0.1207Ga0.0172As0.0517Ti0.0345P0.1552O0.6207,Li2.3333Ga0.3333As1.0Ti0.6667P3O12,8.099321,0.00018559860814444028
Li0.1207Ga0.0259As0.0431Ti0.0345P0.1552O0.6207,Li2.3333Ga0.5As0.8333Ti0.6667P3O12,8.099321,1.2204103721136013e-08
Li0.1207Ga0.0431As0.0259Ti0.0345P0.1552O0.6207,Li2.3333Ga0.8333As0.5Ti0.6667P3O12,8.099321,3.197329907211451e-08
Li0.1207Ga0.0517As0.0172Ti0.0345P0.1552O0.6207,Li2.3333Ga1.0As0.3333Ti0.6667P3O12,8.099321,0.03142976660553976
Li0.1207Ga0.0690As0.0000Ti0.0345P0.1552O0.6207,Li2.3333Ga1.3333As0.0Ti0.6667P3O12,6.7658024,
Li0.1282Ga0.0000As0.0769Ti0.0256P0.1538O0.6154,Li2.5Ga0.0As1.5Ti0.5P3O12,8.129335,
Li0.1282Ga0.0085As0.0684Ti0.0256P0.1538O0.6154,Li2.5Ga0.1667As1.3333Ti0.5P3O12,8.129335,0.00032100491938648936
Li0.1282Ga0.0171As0.0598Ti0.0256P0.1538O0.6154,Li2.5Ga0.3333As1.1667Ti0.5P3O12,8.099321,0.00025399446753896973