formula,original_formula,thermal_expansion,li ion conductivity
Li0.1053Mn0.0000Ga0.0526Ti0.0526P0.1579O0.6316,Li2.0Mn0.0Ga1.0Ti1.0P3O12,8.099321,
Li0.1053Mn0.0088Ga0.0439Ti0.0526P0.1579O0.6316,Li2.0Mn0.1667Ga0.8333Ti1.0P3O12,8.099321,1.1107830985707865
Li0.1053Mn0.0175Ga0.0351Ti0.0526P0.1579O0.6316,Li2.0Mn0.3333Ga0.6667Ti1.0P3O12,8.099321,1.7438790165382763
Li0.1053Mn0.0263Ga0.0263Ti0.0526P0.1579O0.6316,Li2.0Mn0.5Ga0.5Ti1.0P3O12,8.099321,2.2534605524018114
Li0.1053Mn0.0351Ga0.0175Ti0.0526P0.1579O0.6316,Li2.0Mn0.6667Ga0.3333Ti1.0P3O12,8.099321,2.755469194004632
Li0.1053Mn0.0439Ga0.0088Ti0.0526P0.1579O0.6316,Li2.0Mn0.8333Ga0.1667Ti1.0P3O12,7.1790795,3.4603570507197063
Li0.1053Mn0.0526Ga0.0000Ti0.0526P0.1579O0.6316,Li2.0Mn1.0Ga0.0Ti1.0P3O12,7.5443654,
Li0.1130Mn0.0000Ga0.0609Ti0.0435P0.1565O0.6261,Li2.1667Mn0.0Ga1.1667Ti0.8333P3O12,6.7658024,
Li0.1130Mn0.0087Ga0.0522Ti0.0435P0.1565O0.6261,Li2.1667Mn0.1667Ga1.0Ti0.8333P3O12,8.099321,0.04408626653875024
Li0.1130Mn0.0261Ga0.0348Ti0.0435P0.1565O0.6261,Li2.1667Mn0.5Ga0.6667Ti0.8333P3O12,8.099321,0.7477167282775834
Li0.1130Mn0.0348Ga0.0261Ti0.0435P0.1565O0.6261,Li2.1667Mn0.6667Ga0.5Ti0.8333P3O12,8.099321,0.9473028174991032
Li0.1130Mn0.0522Ga0.0087Ti0.0435P0.1565O0.6261,Li2.1667Mn1.0Ga0.1667Ti0.8333P3O12,7.5443654,0.06923175293412637
Li0.1130Mn0.0609Ga0.0000Ti0.0435P0.1565O0.6261,Li2.1667Mn1.1667Ga0.0Ti0.8333P3O12,7.5443654,
Li0.1207Mn0.0000Ga0.0690Ti0.0345P0.1552O0.6207,Li2.3333Mn0.0Ga1.3333Ti0.6667P3O12,6.7658024,
Li0.1207Mn0.0172Ga0.0517Ti0.0345P0.1552O0.6207,Li2.3333Mn0.3333Ga1.0Ti0.6667P3O12,8.099321,0.08150232651151491
Li0.1207Mn0.0259Ga0.0431Ti0.0345P0.1552O0.6207,Li2.3333Mn0.5Ga0.8333Ti0.6667P3O12,8.099321,0.6463187259130148
Li0.1207Mn0.0431Ga0.0259Ti0.0345P0.1552O0.6207,Li2.3333Mn0.8333Ga0.5Ti0.6667P3O12,7.149066,0.9829157157086547
Li0.1207Mn0.0517Ga0.0172Ti0.0345P0.1552O0.6207,Li2.3333Mn1.0Ga0.3333Ti0.6667P3O12,7.514352,0.07386873384272527
Li0.1207Mn0.0690Ga0.0000Ti0.0345P0.1552O0.6207,Li2.3333Mn1.3333Ga0.0Ti0.6667P3O12,7.5443654,
Li0.1282Mn0.0000Ga0.0769Ti0.0256P0.1538O0.6154,Li2.5Mn0.0Ga1.5Ti0.5P3O12,6.7658024,
Li0.1282Mn0.0085Ga0.0684Ti0.0256P0.1538O0.6154,Li2.5Mn0.1667Ga1.3333Ti0.5P3O12,6.7658024,0.055431578758313844
Li0.1282Mn0.0171Ga0.0598Ti0.0256P0.1538O0.6154,Li2.5Mn0.3333Ga1.1667Ti0.5P3O12,6.7658024,0.09189686691002229
Li0.1282Mn0.0256Ga0.0513Ti0.0256P0.1538O0.6154,Li2.5Mn0.5Ga1.0Ti0.5P3O12,8.099321,0.11402833842377098
Li0.1282Mn0.0342Ga0.0427Ti0.0256P0.1538O0.6154,Li2.5Mn0.6667Ga0.8333Ti0.5P3O12,8.099321,0.6768816831957698
Li0.1282Mn0.0427Ga0.0342Ti0.0256P0.1538O0.6154,Li2.5Mn0.8333Ga0.6667Ti0.5P3O12,7.149066,0.8139997396794195
Li0.1282Mn0.0513Ga0.0256Ti0.0256P0.1538O0.6154,Li2.5Mn1.0Ga0.5Ti0.5P3O12,7.514352,0.08328596152971028
Li0.1282Mn0.0598Ga0.0171Ti0.0256P0.1538O0.6154,Li2.5Mn1.1667Ga0.3333Ti0.5P3O12,7.514352,0.08040984037861738
Li0.1282Mn0.0684Ga0.0085Ti0.0256P0.1538O0.6154,Li2.5Mn1.3333Ga0.1667Ti0.5P3O12,7.5443654,0.07320087257471633
Li0.1282Mn0.0769Ga0.0000Ti0.0256P0.1538O0.6154,Li2.5Mn1.5Ga0.0Ti0.5P3O12,7.5443654,
Li0.1356Mn0.0000Ga0.0847Ti0.0169P0.1525O0.6102,Li2.6667Mn0.0Ga1.6667Ti0.3333P3O12,6.7658024,
Li0.1356Mn0.0085Ga0.0763Ti0.0169P0.1525O0.6102,Li2.6667Mn0.1667Ga1.5Ti0.3333P3O12,6.7658024,0.06788290291132713
Li0.1356Mn0.0254Ga0.0593Ti0.0169P0.1525O0.6102,Li2.6667Mn0.5Ga1.1667Ti0.3333P3O12,6.7658024,0.12822870550557555
Li0.1356Mn0.0339Ga0.0508Ti0.0169P0.1525O0.6102,Li2.6667Mn0.6667Ga1.0Ti0.3333P3O12,8.099321,0.14522820246672635
Li0.1356Mn0.0508Ga0.0339Ti0.0169P0.1525O0.6102,Li2.6667Mn1.0Ga0.6667Ti0.3333P3O12,7.514352,0.10027084804011686
Li0.1356Mn0.0593Ga0.0254Ti0.0169P0.1525O0.6102,Li2.6667Mn1.1667Ga0.5Ti0.3333P3O12,7.514352,0.09666145631645402
Li0.1356Mn0.0763Ga0.0085Ti0.0169P0.1525O0.6102,Li2.6667Mn1.5Ga0.1667Ti0.3333P3O12,7.5443654,0.08418852758619776
Li0.1356Mn0.0847Ga0.0000Ti0.0169P0.1525O0.6102,Li2.6667Mn1.6667Ga0.0Ti0.3333P3O12,7.480082,
Li0.1429Mn0.0000Ga0.0924Ti0.0084P0.1513O0.6050,Li2.8333Mn0.0Ga1.8333Ti0.1667P3O12,10.497339,
Li0.1429Mn0.0168Ga0.0756Ti0.0084P0.1513O0.6050,Li2.8333Mn0.3333Ga1.5Ti0.1667P3O12,10.497339,0.13059426936850504
Li0.1429Mn0.0252Ga0.0672Ti0.0084P0.1513O0.6050,Li2.8333Mn0.5Ga1.3333Ti0.1667P3O12,10.497339,0.15729559009203195
Li0.1429Mn0.0420Ga0.0504Ti0.0084P0.1513O0.6050,Li2.8333Mn0.8333Ga1.0Ti0.1667P3O12,9.0275545,0.1956035934566767
Li0.1429Mn0.0504Ga0.0420Ti0.0084P0.1513O0.6050,Li2.8333Mn1.0Ga0.8333Ti0.1667P3O12,9.3928385,0.14846707211717938
Li0.1429Mn0.0672Ga0.0252Ti0.0084P0.1513O0.6050,Li2.8333Mn1.3333Ga0.5Ti0.1667P3O12,9.3928385,0.13312035036932018
Li0.1429Mn0.0756Ga0.0168Ti0.0084P0.1513O0.6050,Li2.8333Mn1.5Ga0.3333Ti0.1667P3O12,9.3928385,0.12620487354261012
Li0.1429Mn0.0924Ga0.0000Ti0.0084P0.1513O0.6050,Li2.8333Mn1.8333Ga0.0Ti0.1667P3O12,9.358569,
Li0.1500Mn0.0000Ga0.1000Ti0.0000P0.1500O0.6000,Li3.0Mn0.0Ga2.0Ti0.0P3O12,13.755412,
Li0.1500Mn0.0083Ga0.0917Ti0.0000P0.1500O0.6000,Li3.0Mn0.1667Ga1.8333Ti0.0P3O12,13.843395,
Li0.1500Mn0.0167Ga0.0833Ti0.0000P0.1500O0.6000,Li3.0Mn0.3333Ga1.6667Ti0.0P3O12,13.843395,
Li0.1500Mn0.0250Ga0.0750Ti0.0000P0.1500O0.6000,Li3.0Mn0.5Ga1.5Ti0.0P3O12,13.843395,
Li0.1500Mn0.0333Ga0.0667Ti0.0000P0.1500O0.6000,Li3.0Mn0.6667Ga1.3333Ti0.0P3O12,13.843395,
Li0.1500Mn0.0417Ga0.0583Ti0.0000P0.1500O0.6000,Li3.0Mn0.8333Ga1.1667Ti0.0P3O12,12.373611,
Li0.1500Mn0.0500Ga0.0500Ti0.0000P0.1500O0.6000,Li3.0Mn1.0Ga1.0Ti0.0P3O12,12.738896,
Li0.1500Mn0.0583Ga0.0417Ti0.0000P0.1500O0.6000,Li3.0Mn1.1667Ga0.8333Ti0.0P3O12,12.738896,
Li0.1500Mn0.0667Ga0.0333Ti0.0000P0.1500O0.6000,Li3.0Mn1.3333Ga0.6667Ti0.0P3O12,12.738896,
Li0.1500Mn0.0750Ga0.0250Ti0.0000P0.1500O0.6000,Li3.0Mn1.5Ga0.5Ti0.0P3O12,12.738896,
Li0.1500Mn0.0833Ga0.0167Ti0.0000P0.1500O0.6000,Li3.0Mn1.6667Ga0.3333Ti0.0P3O12,12.674613,
Li0.1500Mn0.0917Ga0.0083Ti0.0000P0.1500O0.6000,Li3.0Mn1.8333Ga0.1667Ti0.0P3O12,12.704627,
Li0.1500Mn0.1000Ga0.0000Ti0.0000P0.1500O0.6000,Li3.0Mn2.0Ga0.0Ti0.0P3O12,12.704627,
Li0.0556Mn0.0000In0.0000Ti0.1111P0.1667O0.6667,Li1.0Mn0.0In0.0Ti2.0P3O12,7.7087817,
Li0.0642Mn0.0000In0.0092Ti0.1009P0.1651O0.6605,Li1.1667Mn0.0In0.1667Ti1.8333P3O12,7.7087817,
Li0.0642Mn0.0092In0.0000Ti0.1009P0.1651O0.6605,Li1.1667Mn0.1667In0.0Ti1.8333P3O12,7.7087817,
Li0.0727Mn0.0000In0.0182Ti0.0909P0.1636O0.6545,Li1.3333Mn0.0In0.3333Ti1.6667P3O12,8.017441,
Li0.0727Mn0.0182In0.0000Ti0.0909P0.1636O0.6545,Li1.3333Mn0.3333In0.0Ti1.6667P3O12,7.7087817,
Li0.0811Mn0.0000In0.0270Ti0.0811P0.1622O0.6486,Li1.5Mn0.0In0.5Ti1.5P3O12,8.31198,
Li0.0811Mn0.0090In0.0180Ti0.0811P0.1622O0.6486,Li1.5Mn0.1667In0.3333Ti1.5P3O12,8.036197,0.7497472560689008
Li0.0811Mn0.0180In0.0090Ti0.0811P0.1622O0.6486,Li1.5Mn0.3333In0.1667Ti1.5P3O12,7.750805,1.4792686214339754
Li0.0811Mn0.0270In0.0000Ti0.0811P0.1622O0.6486,Li1.5Mn0.5In0.0Ti1.5P3O12,7.750805,
Li0.0893Mn0.0000In0.0357Ti0.0714P0.1607O0.6429,Li1.6667Mn0.0In0.6667Ti1.3333P3O12,8.690509,
Li0.0893Mn0.0089In0.0268Ti0.0714P0.1607O0.6429,Li1.6667Mn0.1667In0.5Ti1.3333P3O12,8.690509,0.6802615651972833
Li0.0893Mn0.0268In0.0089Ti0.0714P0.1607O0.6429,Li1.6667Mn0.5In0.1667Ti1.3333P3O12,8.129335,1.8017662266850791
Li0.0893Mn0.0357In0.0000Ti0.0714P0.1607O0.6429,Li1.6667Mn0.6667In0.0Ti1.3333P3O12,8.129335,
Li0.0973Mn0.0000In0.0442Ti0.0619P0.1593O0.6372,Li1.8333Mn0.0In0.8333Ti1.1667P3O12,8.690509,
Li0.0973Mn0.0177In0.0265Ti0.0619P0.1593O0.6372,Li1.8333Mn0.3333In0.5Ti1.1667P3O12,8.690509,1.1361169023053042
Li0.0973Mn0.0265In0.0177Ti0.0619P0.1593O0.6372,Li1.8333Mn0.5In0.3333Ti1.1667P3O12,8.414724,1.543733778227554
Li0.0973Mn0.0442In0.0000Ti0.0619P0.1593O0.6372,Li1.8333Mn0.8333In0.0Ti1.1667P3O12,7.1790795,
Li0.1053Mn0.0000In0.0526Ti0.0526P0.1579O0.6316,Li2.0Mn0.0In1.0Ti1.0P3O12,8.690509,
Li0.1053Mn0.0088In0.0439Ti0.0526P0.1579O0.6316,Li2.0Mn0.1667In0.8333Ti1.0P3O12,8.690509,0.6189292350124447
Li0.1053Mn0.0175In0.0351Ti0.0526P0.1579O0.6316,Li2.0Mn0.3333In0.6667Ti1.0P3O12,8.690509,1.078979874127561
Li0.1053Mn0.0263In0.0263Ti0.0526P0.1579O0.6316,Li2.0Mn0.5In0.5Ti1.0P3O12,8.690509,1.4208861466676685
Li0.1053Mn0.0351In0.0175Ti0.0526P0.1579O0.6316,Li2.0Mn0.6667In0.3333Ti1.0P3O12,8.403259,1.7674518568564375
Li0.1053Mn0.0439In0.0088Ti0.0526P0.1579O0.6316,Li2.0Mn0.8333In0.1667Ti1.0P3O12,7.1790795,2.2412550700003875
Li0.1053Mn0.0526In0.0000Ti0.0526P0.1579O0.6316,Li2.0Mn1.0In0.0Ti1.0P3O12,7.5443654,
Li0.1130Mn0.0000In0.0609Ti0.0435P0.1565O0.6261,Li2.1667Mn0.0In1.1667Ti0.8333P3O12,8.690509,
Li0.1130Mn0.0087In0.0522Ti0.0435P0.1565O0.6261,Li2.1667Mn0.1667In1.0Ti0.8333P3O12,8.690509,0.010844645950606045
Li0.1130Mn0.0261In0.0348Ti0.0435P0.1565O0.6261,Li2.1667Mn0.5In0.6667Ti0.8333P3O12,8.690509,0.23039978580380086
Li0.1130Mn0.0348In0.0261Ti0.0435P0.1565O0.6261,Li2.1667Mn0.6667In0.5Ti0.8333P3O12,8.690509,0.309643616370919
Li0.1130Mn0.0522In0.0087Ti0.0435P0.1565O0.6261,Li2.1667Mn1.0In0.1667Ti0.8333P3O12,7.5443654,0.0663669510087714
Li0.1130Mn0.0609In0.0000Ti0.0435P0.1565O0.6261,Li2.1667Mn1.1667In0.0Ti0.8333P3O12,7.5443654,
Li0.1207Mn0.0000In0.0690Ti0.0345P0.1552O0.6207,Li2.3333Mn0.0In1.3333Ti0.6667P3O12,8.690509,
Li0.1207Mn0.0172In0.0517Ti0.0345P0.1552O0.6207,Li2.3333Mn0.3333In1.0Ti0.6667P3O12,8.690509,0.017822512705928932
Li0.1207Mn0.0259In0.0431Ti0.0345P0.1552O0.6207,Li2.3333Mn0.5In0.8333Ti0.6667P3O12,8.690509,0.19366151857415667
Li0.1207Mn0.0431In0.0259Ti0.0345P0.1552O0.6207,Li2.3333Mn0.8333In0.5Ti0.6667P3O12,7.75307,0.3349478596876141
Li0.1207Mn0.0517In0.0172Ti0.0345P0.1552O0.6207,Li2.3333Mn1.0In0.3333Ti0.6667P3O12,7.818288,0.06585412929415357
Li0.1207Mn0.0690In0.0000Ti0.0345P0.1552O0.6207,Li2.3333Mn1.3333In0.0Ti0.6667P3O12,7.5443654,
Li0.1282Mn0.0000In0.0769Ti0.0256P0.1538O0.6154,Li2.5Mn0.0In1.5Ti0.5P3O12,5.7995377,
Li0.1282Mn0.0085In0.0684Ti0.0256P0.1538O0.6154,Li2.5Mn0.1667In1.3333Ti0.5P3O12,8.690509,0.013708007551402819
Li0.1282Mn0.0171In0.0598Ti0.0256P0.1538O0.6154,Li2.5Mn0.3333In1.1667Ti0.5P3O12,8.690509,0.020382413128422008
Li0.1282Mn0.0256In0.0513Ti0.0256P0.1538O0.6154,Li2.5Mn0.5In1.0Ti0.5P3O12,8.690509,0.024355479264951317
Li0.1282Mn0.0342In0.0427Ti0.0256P0.1538O0.6154,Li2.5Mn0.6667In0.8333Ti0.5P3O12,8.690509,0.2102462009288187
Li0.1282Mn0.0427In0.0342Ti0.0256P0.1538O0.6154,Li2.5Mn0.8333In0.6667Ti0.5P3O12,7.75307,0.2679159336582102
Li0.1282Mn0.0513In0.0256Ti0.0256P0.1538O0.6154,Li2.5Mn1.0In0.5Ti0.5P3O12,8.118357,0.05672570315813606
Li0.1282Mn0.0598In0.0171Ti0.0256P0.1538O0.6154,Li2.5Mn1.1667In0.3333Ti0.5P3O12,7.818288,0.06492476031436797
Li0.1282Mn0.0684In0.0085Ti0.0256P0.1538O0.6154,Li2.5Mn1.3333In0.1667Ti0.5P3O12,7.5443654,0.06685256347090508
Li0.1282Mn0.0769In0.0000Ti0.0256P0.1538O0.6154,Li2.5Mn1.5In0.0Ti0.5P3O12,7.5443654,
Li0.1356Mn0.0000In0.0847Ti0.0169P0.1525O0.6102,Li2.6667Mn0.0In1.6667Ti0.3333P3O12,5.7995377,
Li0.1356Mn0.0085In0.0763Ti0.0169P0.1525O0.6102,Li2.6667Mn0.1667In1.5Ti0.3333P3O12,8.690509,0.016458766539587458
Li0.1356Mn0.0254In0.0593Ti0.0169P0.1525O0.6102,Li2.6667Mn0.5In1.1667Ti0.3333P3O12,8.690509,0.028234053869791574
Li0.1356Mn0.0339In0.0508Ti0.0169P0.1525O0.6102,Li2.6667Mn0.6667In1.0Ti0.3333P3O12,8.690509,0.03133198370466321
Li0.1356Mn0.0508In0.0339Ti0.0169P0.1525O0.6102,Li2.6667Mn1.0In0.6667Ti0.3333P3O12,8.118357,0.05186464468842379
Li0.1356Mn0.0593In0.0254Ti0.0169P0.1525O0.6102,Li2.6667Mn1.1667In0.5Ti0.3333P3O12,8.118357,0.05812236293427811
Li0.1356Mn0.0763In0.0085Ti0.0169P0.1525O0.6102,Li2.6667Mn1.5In0.1667Ti0.3333P3O12,7.5443654,0.06908793292287133
Li0.1356Mn0.0847In0.0000Ti0.0169P0.1525O0.6102,Li2.6667Mn1.6667In0.0Ti0.3333P3O12,7.480082,
Li0.1429Mn0.0000In0.0924Ti0.0084P0.1513O0.6050,Li2.8333Mn0.0In1.8333Ti0.1667P3O12,9.531069,
Li0.1429Mn0.0168In0.0756Ti0.0084P0.1513O0.6050,Li2.8333Mn0.3333In1.5Ti0.1667P3O12,12.422039,0.031135757061908957
Li0.1429Mn0.0252In0.0672Ti0.0084P0.1513O0.6050,Li2.8333Mn0.5In1.3333Ti0.1667P3O12,12.422039,0.03503301080233582
Li0.1429Mn0.0420In0.0504Ti0.0084P0.1513O0.6050,Li2.8333Mn0.8333In1.0Ti0.1667P3O12,9.6315565,0.042113848842171335
Li0.1429Mn0.0504In0.0420Ti0.0084P0.1513O0.6050,Li2.8333Mn1.0In0.8333Ti0.1667P3O12,9.9968405,0.05383778800088312
Li0.1429Mn0.0672In0.0252Ti0.0084P0.1513O0.6050,Li2.8333Mn1.3333In0.5Ti0.1667P3O12,9.9968405,0.06343320661600968
Li0.1429Mn0.0756In0.0168Ti0.0084P0.1513O0.6050,Li2.8333Mn1.5In0.3333Ti0.1667P3O12,9.6967745,0.06927395337995354
Li0.1429Mn0.0924In0.0000Ti0.0084P0.1513O0.6050,Li2.8333Mn1.8333In0.0Ti0.1667P3O12,9.358569,
Li0.1500Mn0.0000In0.1000Ti0.0000P0.1500O0.6000,Li3.0Mn0.0In2.0Ti0.0P3O12,12.877124,
Li0.1500Mn0.0083In0.0917Ti0.0000P0.1500O0.6000,Li3.0Mn0.1667In1.8333Ti0.0P3O12,12.877124,
Li0.1500Mn0.0167In0.0833Ti0.0000P0.1500O0.6000,Li3.0Mn0.3333In1.6667Ti0.0P3O12,12.877124,
Li0.1500Mn0.0250In0.0750Ti0.0000P0.1500O0.6000,Li3.0Mn0.5In1.5Ti0.0P3O12,15.768095,
Li0.1500Mn0.0333In0.0667Ti0.0000P0.1500O0.6000,Li3.0Mn0.6667In1.3333Ti0.0P3O12,15.768095,
Li0.1500Mn0.0417In0.0583Ti0.0000P0.1500O0.6000,Li3.0Mn0.8333In1.1667Ti0.0P3O12,12.977613,
Li0.1500Mn0.0500In0.0500Ti0.0000P0.1500O0.6000,Li3.0Mn1.0In1.0Ti0.0P3O12,13.342898,
Li0.1500Mn0.0583In0.0417Ti0.0000P0.1500O0.6000,Li3.0Mn1.1667In0.8333Ti0.0P3O12,13.342898,
Li0.1500Mn0.0667In0.0333Ti0.0000P0.1500O0.6000,Li3.0Mn1.3333In0.6667Ti0.0P3O12,13.342898,
Li0.1500Mn0.0750In0.0250Ti0.0000P0.1500O0.6000,Li3.0Mn1.5In0.5Ti0.0P3O12,13.342898,
Li0.1500Mn0.0833In0.0167Ti0.0000P0.1500O0.6000,Li3.0Mn1.6667In0.3333Ti0.0P3O12,12.978549,
Li0.1500Mn0.0917In0.0083Ti0.0000P0.1500O0.6000,Li3.0Mn1.8333In0.1667Ti0.0P3O12,12.704627,
Li0.1500Mn0.1000In0.0000Ti0.0000P0.1500O0.6000,Li3.0Mn2.0In0.0Ti0.0P3O12,12.704627,
Li0.0556Mn0.0000Ti0.1111P0.1667O0.6667,Li1.0Mn0.0Mn0.0Ti2.0P3O12,7.7087817,
Li0.0642Mn0.0092Ti0.1009P0.1651O0.6605,Li1.1667Mn0.0Mn0.1667Ti1.8333P3O12,7.7087817,0.07661168017844894
Li0.0642Mn0.0092Ti0.1009P0.1651O0.6605,Li1.1667Mn0.1667Mn0.0Ti1.8333P3O12,7.7087817,
Li0.0727Mn0.0182Ti0.0909P0.1636O0.6545,Li1.3333Mn0.0Mn0.3333Ti1.6667P3O12,7.7087817,0.10847307481707479
Li0.0727Mn0.0182Ti0.0909P0.1636O0.6545,Li1.3333Mn0.3333Mn0.0Ti1.6667P3O12,7.7087817,
Li0.0811Mn0.0270Ti0.0811P0.1622O0.6486,Li1.5Mn0.0Mn0.5Ti1.5P3O12,7.750805,0.1283287050874338
Li0.0811Mn0.0270Ti0.0811P0.1622O0.6486,Li1.5Mn0.1667Mn0.3333Ti1.5P3O12,7.750805,0.10697536131222384
Li0.0811Mn0.0270Ti0.0811P0.1622O0.6486,Li1.5Mn0.3333Mn0.1667Ti1.5P3O12,7.750805,0.07454056048930154
Li0.0811Mn0.0270Ti0.0811P0.1622O0.6486,Li1.5Mn0.5Mn0.0Ti1.5P3O12,7.750805,
Li0.0893Mn0.0357Ti0.0714P0.1607O0.6429,Li1.6667Mn0.0Mn0.6667Ti1.3333P3O12,8.129335,0.14776453382713842
Li0.0893Mn0.0357Ti0.0714P0.1607O0.6429,Li1.6667Mn0.1667Mn0.5Ti1.3333P3O12,8.129335,0.127235568906072
Li0.0893Mn0.0357Ti0.0714P0.1607O0.6429,Li1.6667Mn0.5Mn0.1667Ti1.3333P3O12,8.129335,0.07327050739173349
Li0.0893Mn0.0357Ti0.0714P0.1607O0.6429,Li1.6667Mn0.6667Mn0.0Ti1.3333P3O12,8.129335,
Li0.0973Mn0.0442Ti0.0619P0.1593O0.6372,Li1.8333Mn0.0Mn0.8333Ti1.1667P3O12,7.1790795,0.16944497808951317
Li0.0973Mn0.0442Ti0.0619P0.1593O0.6372,Li1.8333Mn0.3333Mn0.5Ti1.1667P3O12,7.1790795,0.12573979877475933
Li0.0973Mn0.0442Ti0.0619P0.1593O0.6372,Li1.8333Mn0.5Mn0.3333Ti1.1667P3O12,7.1790795,0.10495692877635793
Li0.0973Mn0.0442Ti0.0619P0.1593O0.6372,Li1.8333Mn0.8333Mn0.0Ti1.1667P3O12,7.1790795,
Li0.1053Mn0.0526Ti0.0526P0.1579O0.6316,Li2.0Mn0.0Mn1.0Ti1.0P3O12,7.5443654,0.0006185287642534174
Li0.1053Mn0.0526Ti0.0526P0.1579O0.6316,Li2.0Mn0.1667Mn0.8333Ti1.0P3O12,7.5443654,0.16573108821150828
Li0.1053Mn0.0526Ti0.0526P0.1579O0.6316,Li2.0Mn0.3333Mn0.6667Ti1.0P3O12,7.5443654,0.1427205195464511
Li0.1053Mn0.0526Ti0.0526P0.1579O0.6316,Li2.0Mn0.5Mn0.5Ti1.0P3O12,7.5443654,0.12426741148798812
Li0.1053Mn0.0526Ti0.0526P0.1579O0.6316,Li2.0Mn0.6667Mn0.3333Ti1.0P3O12,7.5443654,0.10383683950943372
Li0.1053Mn0.0526Ti0.0526P0.1579O0.6316,Li2.0Mn0.8333Mn0.1667Ti1.0P3O12,7.5443654,0.07126866078304343
Li0.1053Mn0.0526Ti0.0526P0.1579O0.6316,Li2.0Mn1.0Mn0.0Ti1.0P3O12,7.5443654,
Li0.1130Mn0.0609Ti0.0435P0.1565O0.6261,Li2.1667Mn0.0Mn1.1667Ti0.8333P3O12,7.5443654,0.07170474653819878
Li0.1130Mn0.0609Ti0.0435P0.1565O0.6261,Li2.1667Mn0.1667Mn1.0Ti0.8333P3O12,7.5443654,0.07172773896178712
Li0.1130Mn0.0609Ti0.0435P0.1565O0.6261,Li2.1667Mn0.5Mn0.6667Ti0.8333P3O12,7.5443654,0.17087936402343845
Li0.1130Mn0.0609Ti0.0435P0.1565O0.6261,Li2.1667Mn0.6667Mn0.5Ti0.8333P3O12,7.5443654,0.15441160386975847
Li0.1130Mn0.0609Ti0.0435P0.1565O0.6261,Li2.1667Mn1.0Mn0.1667Ti0.8333P3O12,7.5443654,0.08357919040353598
Li0.1130Mn0.0609Ti0.0435P0.1565O0.6261,Li2.1667Mn1.1667Mn0.0Ti0.8333P3O12,7.5443654,
Li0.1207Mn0.0690Ti0.0345P0.1552O0.6207,Li2.3333Mn0.0Mn1.3333Ti0.6667P3O12,7.5443654,0.05675006077999465
Li0.1207Mn0.0690Ti0.0345P0.1552O0.6207,Li2.3333Mn0.3333Mn1.0Ti0.6667P3O12,7.5443654,0.0564843751760152
Li0.1207Mn0.0690Ti0.0345P0.1552O0.6207,Li2.3333Mn0.5Mn0.8333Ti0.6667P3O12,7.5443654,0.19885828608132308
Li0.1207Mn0.0690Ti0.0345P0.1552O0.6207,Li2.3333Mn0.8333Mn0.5Ti0.6667P3O12,7.5443654,0.16697913617150456
Li0.1207Mn0.0690Ti0.0345P0.1552O0.6207,Li2.3333Mn1.0Mn0.3333Ti0.6667P3O12,7.5443654,0.14075821150914108
Li0.1207Mn0.0690Ti0.0345P0.1552O0.6207,Li2.3333Mn1.3333Mn0.0Ti0.6667P3O12,7.5443654,
Li0.1282Mn0.0769Ti0.0256P0.1538O0.6154,Li2.5Mn0.0Mn1.5Ti0.5P3O12,7.5443654,0.042210507136504594
Li0.1282Mn0.0769Ti0.0256P0.1538O0.6154,Li2.5Mn0.1667Mn1.3333Ti0.5P3O12,7.5443654,0.04197655767492247
Li0.1282Mn0.0769Ti0.0256P0.1538O0.6154,Li2.5Mn0.3333Mn1.1667Ti0.5P3O12,7.5443654,0.041616591733962385
Li0.1282Mn0.0769Ti0.0256P0.1538O0.6154,Li2.5Mn0.5Mn1.0Ti0.5P3O12,7.5443654,0.04126107170096758
Li0.1282Mn0.0769Ti0.0256P0.1538O0.6154,Li2.5Mn0.6667Mn0.8333Ti0.5P3O12,7.5443654,0.21558505005215406
Li0.1282Mn0.0769Ti0.0256P0.1538O0.6154,Li2.5Mn0.8333Mn0.6667Ti0.5P3O12,7.5443654,0.20000885885630468
Li0.1282Mn0.0769Ti0.0256P0.1538O0.6154,Li2.5Mn1.0Mn0.5Ti0.5P3O12,7.5443654,0.18233527441696484
Li0.1282Mn0.0769Ti0.0256P0.1538O0.6154,Li2.5Mn1.1667Mn0.3333Ti0.5P3O12,7.5443654,0.15551600239454547
Li0.1282Mn0.0769Ti0.0256P0.1538O0.6154,Li2.5Mn1.3333Mn0.1667Ti0.5P3O12,7.5443654,0.10565296124979545
Li0.1282Mn0.0769Ti0.0256P0.1538O0.6154,Li2.5Mn1.5Mn0.0Ti0.5P3O12,7.5443654,
Li0.1356Mn0.0847Ti0.0169P0.1525O0.6102,Li2.6667Mn0.0Mn1.6667Ti0.3333P3O12,7.480082,0.026992489617757097
Li0.1356Mn0.0847Ti0.0169P0.1525O0.6102,Li2.6667Mn0.1667Mn1.5Ti0.3333P3O12,7.480082,0.026805010457891475
Li0.1356Mn0.0847Ti0.0169P0.1525O0.6102,Li2.6667Mn0.5Mn1.1667Ti0.3333P3O12,7.480082,0.02644126440468583
Li0.1356Mn0.0847Ti0.0169P0.1525O0.6102,Li2.6667Mn0.6667Mn1.0Ti0.3333P3O12,7.480082,0.026303204349231918
Li0.1356Mn0.0847Ti0.0169P0.1525O0.6102,Li2.6667Mn1.0Mn0.6667Ti0.3333P3O12,7.480082,0.2256805684184264
Li0.1356Mn0.0847Ti0.0169P0.1525O0.6102,Li2.6667Mn1.1667Mn0.5Ti0.3333P3O12,7.480082,0.20873353925235746
Li0.1356Mn0.0847Ti0.0169P0.1525O0.6102,Li2.6667Mn1.5Mn0.1667Ti0.3333P3O12,7.480082,0.12447989433670369
Li0.1356Mn0.0847Ti0.0169P0.1525O0.6102,Li2.6667Mn1.6667Mn0.0Ti0.3333P3O12,7.480082,
Li0.1429Mn0.0924Ti0.0084P0.1513O0.6050,Li2.8333Mn0.0Mn1.8333Ti0.1667P3O12,9.358569,0.012799049951134558
Li0.1429Mn0.0924Ti0.0084P0.1513O0.6050,Li2.8333Mn0.3333Mn1.5Ti0.1667P3O12,9.358569,0.01260586308938005
Li0.1429Mn0.0924Ti0.0084P0.1513O0.6050,Li2.8333Mn0.5Mn1.3333Ti0.1667P3O12,9.358569,0.01252512690939444
Li0.1429Mn0.0924Ti0.0084P0.1513O0.6050,Li2.8333Mn0.8333Mn1.0Ti0.1667P3O12,9.358569,0.012367755129024252
Li0.1429Mn0.0924Ti0.0084P0.1513O0.6050,Li2.8333Mn1.0Mn0.8333Ti0.1667P3O12,9.358569,0.29964371787000804
Li0.1429Mn0.0924Ti0.0084P0.1513O0.6050,Li2.8333Mn1.3333Mn0.5Ti0.1667P3O12,9.358569,0.2601365798188179
Li0.1429Mn0.0924Ti0.0084P0.1513O0.6050,Li2.8333Mn1.5Mn0.3333Ti0.1667P3O12,9.358569,0.22722521237154206
Li0.1429Mn0.0924Ti0.0084P0.1513O0.6050,Li2.8333Mn1.8333Mn0.0Ti0.1667P3O12,9.358569,
Li0.1500Mn0.1000Ti0.0000P0.1500O0.6000,Li3.0Mn0.0Mn2.0Ti0.0P3O12,12.704627,
Li0.1500Mn0.1000Ti0.0000P0.1500O0.6000,Li3.0Mn0.1667Mn1.8333Ti0.0P3O12,12.704627,
Li0.1500Mn0.1000Ti0.0000P0.1500O0.6000,Li3.0Mn0.3333Mn1.6667Ti0.0P3O12,12.704627,
Li0.1500Mn0.1000Ti0.0000P0.1500O0.6000,Li3.0Mn0.5Mn1.5Ti0.0P3O12,12.704627,
Li0.1500Mn0.1000Ti0.0000P0.1500O0.6000,Li3.0Mn0.6667Mn1.3333Ti0.0P3O12,12.704627,
Li0.1500Mn0.1000Ti0.0000P0.1500O0.6000,Li3.0Mn0.8333Mn1.1667Ti0.0P3O12,12.704627,
Li0.1500Mn0.1000Ti0.0000P0.1500O0.6000,Li3.0Mn1.0Mn1.0Ti0.0P3O12,12.704627,