formula,original_formula,thermal_expansion,li ion conductivity
Li0.0973Ga0.0265Cr0.0177Ti0.0619P0.1593O0.6372,Li1.8333Ga0.5Cr0.3333Ti1.1667P3O12,8.099321,0.1477003008754741
Li0.0973Ga0.0442Cr0.0000Ti0.0619P0.1593O0.6372,Li1.8333Ga0.8333Cr0.0Ti1.1667P3O12,8.099321,
Li0.1053Ga0.0000Cr0.0526Ti0.0526P0.1579O0.6316,Li2.0Ga0.0Cr1.0Ti1.0P3O12,7.845156,
Li0.1053Ga0.0088Cr0.0439Ti0.0526P0.1579O0.6316,Li2.0Ga0.1667Cr0.8333Ti1.0P3O12,7.845156,0.07892262797319295
Li0.1053Ga0.0175Cr0.0351Ti0.0526P0.1579O0.6316,Li2.0Ga0.3333Cr0.6667Ti1.0P3O12,8.099321,0.10239836139427849
Li0.1053Ga0.0263Cr0.0263Ti0.0526P0.1579O0.6316,Li2.0Ga0.5Cr0.5Ti1.0P3O12,8.099321,0.1230715717448798
Li0.1053Ga0.0351Cr0.0175Ti0.0526P0.1579O0.6316,Li2.0Ga0.6667Cr0.3333Ti1.0P3O12,8.099321,0.1543314334543528
Li0.1053Ga0.0439Cr0.0088Ti0.0526P0.1579O0.6316,Li2.0Ga0.8333Cr0.1667Ti1.0P3O12,8.099321,0.22169885237848314
Li0.1053Ga0.0526Cr0.0000Ti0.0526P0.1579O0.6316,Li2.0Ga1.0Cr0.0Ti1.0P3O12,8.099321,
Li0.1130Ga0.0000Cr0.0609Ti0.0435P0.1565O0.6261,Li2.1667Ga0.0Cr1.1667Ti0.8333P3O12,13.286617,
Li0.1130Ga0.0087Cr0.0522Ti0.0435P0.1565O0.6261,Li2.1667Ga0.1667Cr1.0Ti0.8333P3O12,7.845156,0.10369294664268018
Li0.1130Ga0.0261Cr0.0348Ti0.0435P0.1565O0.6261,Li2.1667Ga0.5Cr0.6667Ti0.8333P3O12,8.099321,1.1585665221391448e-05
Li0.1130Ga0.0348Cr0.0261Ti0.0435P0.1565O0.6261,Li2.1667Ga0.6667Cr0.5Ti0.8333P3O12,8.099321,1.8156106142110973e-05
Li0.1130Ga0.0522Cr0.0087Ti0.0435P0.1565O0.6261,Li2.1667Ga1.0Cr0.1667Ti0.8333P3O12,8.099321,0.035597284864268657
Li0.1130Ga0.0609Cr0.0000Ti0.0435P0.1565O0.6261,Li2.1667Ga1.1667Cr0.0Ti0.8333P3O12,6.7658024,
Li0.1207Ga0.0000Cr0.0690Ti0.0345P0.1552O0.6207,Li2.3333Ga0.0Cr1.3333Ti0.6667P3O12,13.286617,
Li0.1207Ga0.0172Cr0.0517Ti0.0345P0.1552O0.6207,Li2.3333Ga0.3333Cr1.0Ti0.6667P3O12,7.8151426,0.12220341428914643
Li0.1207Ga0.0259Cr0.0431Ti0.0345P0.1552O0.6207,Li2.3333Ga0.5Cr0.8333Ti0.6667P3O12,7.8151426,7.5513413237181375e-06
Li0.1207Ga0.0431Cr0.0259Ti0.0345P0.1552O0.6207,Li2.3333Ga0.8333Cr0.5Ti0.6667P3O12,8.099321,1.724900126349415e-05
Li0.1207Ga0.0517Cr0.0172Ti0.0345P0.1552O0.6207,Li2.3333Ga1.0Cr0.3333Ti0.6667P3O12,8.099321,0.0730423109206346
Li0.1207Ga0.0690Cr0.0000Ti0.0345P0.1552O0.6207,Li2.3333Ga1.3333Cr0.0Ti0.6667P3O12,6.7658024,
Li0.1282Ga0.0000Cr0.0769Ti0.0256P0.1538O0.6154,Li2.5Ga0.0Cr1.5Ti0.5P3O12,13.286617,
Li0.1282Ga0.0085Cr0.0684Ti0.0256P0.1538O0.6154,Li2.5Ga0.1667Cr1.3333Ti0.5P3O12,13.286617,0.1134774860536285
Li0.1282Ga0.0171Cr0.0598Ti0.0256P0.1538O0.6154,Li2.5Ga0.3333Cr1.1667Ti0.5P3O12,7.8151426,0.13097012469477398
Li0.1282Ga0.0256Cr0.0513Ti0.0256P0.1538O0.6154,Li2.5Ga0.5Cr1.0Ti0.5P3O12,7.8151426,0.14667072914520132
Li0.1282Ga0.0342Cr0.0427Ti0.0256P0.1538O0.6154,Li2.5Ga0.6667Cr0.8333Ti0.5P3O12,7.8151426,7.147444175114029e-06
Li0.1282Ga0.0427Cr0.0342Ti0.0256P0.1538O0.6154,Li2.5Ga0.8333Cr0.6667Ti0.5P3O12,8.099321,1.0376783051779453e-05
Li0.1282Ga0.0513Cr0.0256Ti0.0256P0.1538O0.6154,Li2.5Ga1.0Cr0.5Ti0.5P3O12,8.099321,0.10741542620808202
Li0.1282Ga0.0598Cr0.0171Ti0.0256P0.1538O0.6154,Li2.5Ga1.1667Cr0.3333Ti0.5P3O12,6.7658024,0.07858350275400648
Li0.1282Ga0.0684Cr0.0085Ti0.0256P0.1538O0.6154,Li2.5Ga1.3333Cr0.1667Ti0.5P3O12,6.7658024,0.042627951403146055
Li0.1282Ga0.0769Cr0.0000Ti0.0256P0.1538O0.6154,Li2.5Ga1.5Cr0.0Ti0.5P3O12,6.7658024,
Li0.1356Ga0.0000Cr0.0847Ti0.0169P0.1525O0.6102,Li2.6667Ga0.0Cr1.6667Ti0.3333P3O12,13.699678,
Li0.1356Ga0.0085Cr0.0763Ti0.0169P0.1525O0.6102,Li2.6667Ga0.1667Cr1.5Ti0.3333P3O12,13.286617,0.130057816051134
Li0.1356Ga0.0254Cr0.0593Ti0.0169P0.1525O0.6102,Li2.6667Ga0.5Cr1.1667Ti0.3333P3O12,7.8151426,0.17429123570058624
Li0.1356Ga0.0339Cr0.0508Ti0.0169P0.1525O0.6102,Li2.6667Ga0.6667Cr1.0Ti0.3333P3O12,7.8151426,0.18912923721928732
Li0.1356Ga0.0508Cr0.0339Ti0.0169P0.1525O0.6102,Li2.6667Ga1.0Cr0.6667Ti0.3333P3O12,8.099321,0.13803702000234172
Li0.1356Ga0.0593Cr0.0254Ti0.0169P0.1525O0.6102,Li2.6667Ga1.1667Cr0.5Ti0.3333P3O12,6.7658024,0.11551383195520089
Li0.1356Ga0.0763Cr0.0085Ti0.0169P0.1525O0.6102,Li2.6667Ga1.5Cr0.1667Ti0.3333P3O12,6.7658024,0.04946454015135983
Li0.1356Ga0.0847Cr0.0000Ti0.0169P0.1525O0.6102,Li2.6667Ga1.6667Cr0.0Ti0.3333P3O12,6.7658024,
Li0.1429Ga0.0000Cr0.0924Ti0.0084P0.1513O0.6050,Li2.8333Ga0.0Cr1.8333Ti0.1667P3O12,17.431204,
Li0.1429Ga0.0168Cr0.0756Ti0.0084P0.1513O0.6050,Li2.8333Ga0.3333Cr1.5Ti0.1667P3O12,16.98813,0.2100241332056963
Li0.1429Ga0.0252Cr0.0672Ti0.0084P0.1513O0.6050,Li2.8333Ga0.5Cr1.3333Ti0.1667P3O12,16.98813,0.23516436243190683
Li0.1429Ga0.0420Cr0.0504Ti0.0084P0.1513O0.6050,Li2.8333Ga0.8333Cr1.0Ti0.1667P3O12,11.546678,0.26955498820294105
Li0.1429Ga0.0504Cr0.0420Ti0.0084P0.1513O0.6050,Li2.8333Ga1.0Cr0.8333Ti0.1667P3O12,11.546678,0.1773525638027937
Li0.1429Ga0.0672Cr0.0252Ti0.0084P0.1513O0.6050,Li2.8333Ga1.3333Cr0.5Ti0.1667P3O12,10.497339,0.1300423236359967
Li0.1429Ga0.0756Cr0.0168Ti0.0084P0.1513O0.6050,Li2.8333Ga1.5Cr0.3333Ti0.1667P3O12,10.497339,0.09973245667561385
Li0.1429Ga0.0924Cr0.0000Ti0.0084P0.1513O0.6050,Li2.8333Ga1.8333Cr0.0Ti0.1667P3O12,10.497339,
Li0.1500Ga0.0000Cr0.1000Ti0.0000P0.1500O0.6000,Li3.0Ga0.0Cr2.0Ti0.0P3O12,17.903326,
Li0.1500Ga0.0083Cr0.0917Ti0.0000P0.1500O0.6000,Li3.0Ga0.1667Cr1.8333Ti0.0P3O12,17.903326,
Li0.1500Ga0.0167Cr0.0833Ti0.0000P0.1500O0.6000,Li3.0Ga0.3333Cr1.6667Ti0.0P3O12,17.873312,
Li0.1500Ga0.0250Cr0.0750Ti0.0000P0.1500O0.6000,Li3.0Ga0.5Cr1.5Ti0.0P3O12,17.460253,
Li0.1500Ga0.0333Cr0.0667Ti0.0000P0.1500O0.6000,Li3.0Ga0.6667Cr1.3333Ti0.0P3O12,17.460253,
Li0.1500Ga0.0417Cr0.0583Ti0.0000P0.1500O0.6000,Li3.0Ga0.8333Cr1.1667Ti0.0P3O12,14.892734,
Li0.1500Ga0.0500Cr0.0500Ti0.0000P0.1500O0.6000,Li3.0Ga1.0Cr1.0Ti0.0P3O12,14.892734,
Li0.1500Ga0.0583Cr0.0417Ti0.0000P0.1500O0.6000,Li3.0Ga1.1667Cr0.8333Ti0.0P3O12,14.892734,
Li0.1500Ga0.0667Cr0.0333Ti0.0000P0.1500O0.6000,Li3.0Ga1.3333Cr0.6667Ti0.0P3O12,13.843395,
Li0.1500Ga0.0750Cr0.0250Ti0.0000P0.1500O0.6000,Li3.0Ga1.5Cr0.5Ti0.0P3O12,13.843395,
Li0.1500Ga0.0833Cr0.0167Ti0.0000P0.1500O0.6000,Li3.0Ga1.6667Cr0.3333Ti0.0P3O12,13.843395,
Li0.1500Ga0.0917Cr0.0083Ti0.0000P0.1500O0.6000,Li3.0Ga1.8333Cr0.1667Ti0.0P3O12,13.843395,
Li0.1500Ga0.1000Cr0.0000Ti0.0000P0.1500O0.6000,Li3.0Ga2.0Cr0.0Ti0.0P3O12,13.755412,
Li0.0556Ga0.0000Fe0.0000Ti0.1111P0.1667O0.6667,Li1.0Ga0.0Fe0.0Ti2.0P3O12,7.7087817,
Li0.0642Ga0.0000Fe0.0092Ti0.1009P0.1651O0.6605,Li1.1667Ga0.0Fe0.1667Ti1.8333P3O12,7.7087817,
Li0.0642Ga0.0092Fe0.0000Ti0.1009P0.1651O0.6605,Li1.1667Ga0.1667Fe0.0Ti1.8333P3O12,7.7087817,
Li0.0727Ga0.0000Fe0.0182Ti0.0909P0.1636O0.6545,Li1.3333Ga0.0Fe0.3333Ti1.6667P3O12,7.7087817,
Li0.0727Ga0.0182Fe0.0000Ti0.0909P0.1636O0.6545,Li1.3333Ga0.3333Fe0.0Ti1.6667P3O12,7.678768,
Li0.0811Ga0.0000Fe0.0270Ti0.0811P0.1622O0.6486,Li1.5Ga0.0Fe0.5Ti1.5P3O12,6.671572,
Li0.0811Ga0.0090Fe0.0180Ti0.0811P0.1622O0.6486,Li1.5Ga0.1667Fe0.3333Ti1.5P3O12,7.750805,0.1906006713437674
Li0.0811Ga0.0180Fe0.0090Ti0.0811P0.1622O0.6486,Li1.5Ga0.3333Fe0.1667Ti1.5P3O12,7.7207913,0.2851567189359766
Li0.0811Ga0.0270Fe0.0000Ti0.0811P0.1622O0.6486,Li1.5Ga0.5Fe0.0Ti1.5P3O12,7.7207913,
Li0.0893Ga0.0000Fe0.0357Ti0.0714P0.1607O0.6429,Li1.6667Ga0.0Fe0.6667Ti1.3333P3O12,7.0501,
Li0.0893Ga0.0089Fe0.0268Ti0.0714P0.1607O0.6429,Li1.6667Ga0.1667Fe0.5Ti1.3333P3O12,7.0501,0.15380483743069626
Li0.0893Ga0.0268Fe0.0089Ti0.0714P0.1607O0.6429,Li1.6667Ga0.5Fe0.1667Ti1.3333P3O12,8.099321,0.3040755094258323
Li0.0893Ga0.0357Fe0.0000Ti0.0714P0.1607O0.6429,Li1.6667Ga0.6667Fe0.0Ti1.3333P3O12,8.099321,
Li0.0973Ga0.0000Fe0.0442Ti0.0619P0.1593O0.6372,Li1.8333Ga0.0Fe0.8333Ti1.1667P3O12,6.972733,
Li0.0973Ga0.0177Fe0.0265Ti0.0619P0.1593O0.6372,Li1.8333Ga0.3333Fe0.5Ti1.1667P3O12,7.0200863,0.16038384391930513
Li0.0973Ga0.0265Fe0.0177Ti0.0619P0.1593O0.6372,Li1.8333Ga0.5Fe0.3333Ti1.1667P3O12,8.099321,0.20406115102510644
Li0.0973Ga0.0442Fe0.0000Ti0.0619P0.1593O0.6372,Li1.8333Ga0.8333Fe0.0Ti1.1667P3O12,8.099321,
Li0.1053Ga0.0000Fe0.0526Ti0.0526P0.1579O0.6316,Li2.0Ga0.0Fe1.0Ti1.0P3O12,7.040515,
Li0.1053Ga0.0088Fe0.0439Ti0.0526P0.1579O0.6316,Li2.0Ga0.1667Fe0.8333Ti1.0P3O12,6.972733,0.10652323891477611
Li0.1053Ga0.0175Fe0.0351Ti0.0526P0.1579O0.6316,Li2.0Ga0.3333Fe0.6667Ti1.0P3O12,7.0200863,0.12696093730734992
Li0.1053Ga0.0263Fe0.0263Ti0.0526P0.1579O0.6316,Li2.0Ga0.5Fe0.5Ti1.0P3O12,7.0200863,0.15335477989600518
Li0.1053Ga0.0351Fe0.0175Ti0.0526P0.1579O0.6316,Li2.0Ga0.6667Fe0.3333Ti1.0P3O12,8.099321,0.19308020577689858
Li0.1053Ga0.0439Fe0.0088Ti0.0526P0.1579O0.6316,Li2.0Ga0.8333Fe0.1667Ti1.0P3O12,8.099321,0.3089649198181518
Li0.1053Ga0.0526Fe0.0000Ti0.0526P0.1579O0.6316,Li2.0Ga1.0Fe0.0Ti1.0P3O12,8.099321,
Li0.1130Ga0.0000Fe0.0609Ti0.0435P0.1565O0.6261,Li2.1667Ga0.0Fe1.1667Ti0.8333P3O12,7.040515,
Li0.1130Ga0.0087Fe0.0522Ti0.0435P0.1565O0.6261,Li2.1667Ga0.1667Fe1.0Ti0.8333P3O12,6.972733,0.06940497625920072
Li0.1130Ga0.0261Fe0.0348Ti0.0435P0.1565O0.6261,Li2.1667Ga0.5Fe0.6667Ti0.8333P3O12,7.0200863,1.2870581232898171e-06
Li0.1130Ga0.0348Fe0.0261Ti0.0435P0.1565O0.6261,Li2.1667Ga0.6667Fe0.5Ti0.8333P3O12,7.0200863,2.0795680528090733e-06
Li0.1130Ga0.0522Fe0.0087Ti0.0435P0.1565O0.6261,Li2.1667Ga1.0Fe0.1667Ti0.8333P3O12,8.099321,0.10431786906404217
Li0.1130Ga0.0609Fe0.0000Ti0.0435P0.1565O0.6261,Li2.1667Ga1.1667Fe0.0Ti0.8333P3O12,6.7658024,
Li0.1207Ga0.0000Fe0.0690Ti0.0345P0.1552O0.6207,Li2.3333Ga0.0Fe1.3333Ti0.6667P3O12,7.040515,
Li0.1207Ga0.0172Fe0.0517Ti0.0345P0.1552O0.6207,Li2.3333Ga0.3333Fe1.0Ti0.6667P3O12,6.9427195,0.07409861729934286
Li0.1207Ga0.0259Fe0.0431Ti0.0345P0.1552O0.6207,Li2.3333Ga0.5Fe0.8333Ti0.6667P3O12,6.9427195,8.210012795911429e-07
Li0.1207Ga0.0431Fe0.0259Ti0.0345P0.1552O0.6207,Li2.3333Ga0.8333Fe0.5Ti0.6667P3O12,7.0200863,1.992076058530125e-06
Li0.1207Ga0.0517Fe0.0172Ti0.0345P0.1552O0.6207,Li2.3333Ga1.0Fe0.3333Ti0.6667P3O12,8.099321,0.16990615505717752
Li0.1207Ga0.0690Fe0.0000Ti0.0345P0.1552O0.6207,Li2.3333Ga1.3333Fe0.0Ti0.6667P3O12,6.7658024,
Li0.1282Ga0.0000Fe0.0769Ti0.0256P0.1538O0.6154,Li2.5Ga0.0Fe1.5Ti0.5P3O12,7.040515,
Li0.1282Ga0.0085Fe0.0684Ti0.0256P0.1538O0.6154,Li2.5Ga0.1667Fe1.3333Ti0.5P3O12,7.040515,0.07316808844354789
Li0.1282Ga0.0171Fe0.0598Ti0.0256P0.1538O0.6154,Li2.5Ga0.3333Fe1.1667Ti0.5P3O12,7.0105014,0.08078105709184644
Li0.1282Ga0.0256Fe0.0513Ti0.0256P0.1538O0.6154,Li2.5Ga0.5Fe1.0Ti0.5P3O12,6.9427195,0.08392125965915116
Li0.1282Ga0.0342Fe0.0427Ti0.0256P0.1538O0.6154,Li2.5Ga0.6667Fe0.8333Ti0.5P3O12,6.9427195,7.620220616846891e-07
Li0.1282Ga0.0427Fe0.0342Ti0.0256P0.1538O0.6154,Li2.5Ga0.8333Fe0.6667Ti0.5P3O12,7.0200863,1.1513131524143708e-06
Li0.1282Ga0.0513Fe0.0256Ti0.0256P0.1538O0.6154,Li2.5Ga1.0Fe0.5Ti0.5P3O12,7.0200863,0.22252337129054314
Li0.1282Ga0.0598Fe0.0171Ti0.0256P0.1538O0.6154,Li2.5Ga1.1667Fe0.3333Ti0.5P3O12,6.7658024,0.1858872822941779
Li0.1282Ga0.0684Fe0.0085Ti0.0256P0.1538O0.6154,Li2.5Ga1.3333Fe0.1667Ti0.5P3O12,6.7658024,0.12179052119163826
Li0.1282Ga0.0769Fe0.0000Ti0.0256P0.1538O0.6154,Li2.5Ga1.5Fe0.0Ti0.5P3O12,6.7658024,
Li0.1356Ga0.0000Fe0.0847Ti0.0169P0.1525O0.6102,Li2.6667Ga0.0Fe1.6667Ti0.3333P3O12,7.040515,
Li0.1356Ga0.0085Fe0.0763Ti0.0169P0.1525O0.6102,Li2.6667Ga0.1667Fe1.5Ti0.3333P3O12,7.040515,0.08407841673912084
Li0.1356Ga0.0254Fe0.0593Ti0.0169P0.1525O0.6102,Li2.6667Ga0.5Fe1.1667Ti0.3333P3O12,7.0105014,0.09877412951881653
Li0.1356Ga0.0339Fe0.0508Ti0.0169P0.1525O0.6102,Li2.6667Ga0.6667Fe1.0Ti0.3333P3O12,6.9427195,0.10266657428662522
Li0.1356Ga0.0508Fe0.0339Ti0.0169P0.1525O0.6102,Li2.6667Ga1.0Fe0.6667Ti0.3333P3O12,7.0200863,0.28030040805704015
Li0.1356Ga0.0593Fe0.0254Ti0.0169P0.1525O0.6102,Li2.6667Ga1.1667Fe0.5Ti0.3333P3O12,5.6865687,0.2522030451342393
Li0.1356Ga0.0763Fe0.0085Ti0.0169P0.1525O0.6102,Li2.6667Ga1.5Fe0.1667Ti0.3333P3O12,6.7658024,0.1381236629378337
Li0.1356Ga0.0847Fe0.0000Ti0.0169P0.1525O0.6102,Li2.6667Ga1.6667Fe0.0Ti0.3333P3O12,6.7658024,
Li0.1429Ga0.0000Fe0.0924Ti0.0084P0.1513O0.6050,Li2.8333Ga0.0Fe1.8333Ti0.1667P3O12,10.772052,
Li0.1429Ga0.0168Fe0.0756Ti0.0084P0.1513O0.6050,Li2.8333Ga0.3333Fe1.5Ti0.1667P3O12,10.742038,0.12794399315446148
Li0.1429Ga0.0252Fe0.0672Ti0.0084P0.1513O0.6050,Li2.8333Ga0.5Fe1.3333Ti0.1667P3O12,10.742038,0.13799958996691528
Li0.1429Ga0.0420Fe0.0504Ti0.0084P0.1513O0.6050,Li2.8333Ga0.8333Fe1.0Ti0.1667P3O12,10.674255,0.15233729966144627
Li0.1429Ga0.0504Fe0.0420Ti0.0084P0.1513O0.6050,Li2.8333Ga1.0Fe0.8333Ti0.1667P3O12,10.674255,0.36480564333836163
Li0.1429Ga0.0672Fe0.0252Ti0.0084P0.1513O0.6050,Li2.8333Ga1.3333Fe0.5Ti0.1667P3O12,9.418106,0.31004011192645786
Li0.1429Ga0.0756Fe0.0168Ti0.0084P0.1513O0.6050,Li2.8333Ga1.5Fe0.3333Ti0.1667P3O12,10.497339,0.26311306396222356
Li0.1429Ga0.0924Fe0.0000Ti0.0084P0.1513O0.6050,Li2.8333Ga1.8333Fe0.0Ti0.1667P3O12,10.497339,
Li0.1500Ga0.0000Fe0.1000Ti0.0000P0.1500O0.6000,Li3.0Ga0.0Fe2.0Ti0.0P3O12,13.206304,
Li0.1500Ga0.0083Fe0.0917Ti0.0000P0.1500O0.6000,Li3.0Ga0.1667Fe1.8333Ti0.0P3O12,13.332053,
Li0.1500Ga0.0167Fe0.0833Ti0.0000P0.1500O0.6000,Li3.0Ga0.3333Fe1.6667Ti0.0P3O12,13.302039,
Li0.1500Ga0.0250Fe0.0750Ti0.0000P0.1500O0.6000,Li3.0Ga0.5Fe1.5Ti0.0P3O12,13.302039,
Li0.1500Ga0.0333Fe0.0667Ti0.0000P0.1500O0.6000,Li3.0Ga0.6667Fe1.3333Ti0.0P3O12,13.302039,
Li0.1500Ga0.0417Fe0.0583Ti0.0000P0.1500O0.6000,Li3.0Ga0.8333Fe1.1667Ti0.0P3O12,13.302039,
Li0.1500Ga0.0500Fe0.0500Ti0.0000P0.1500O0.6000,Li3.0Ga1.0Fe1.0Ti0.0P3O12,13.234257,
Li0.1500Ga0.0583Fe0.0417Ti0.0000P0.1500O0.6000,Li3.0Ga1.1667Fe0.8333Ti0.0P3O12,13.234257,
Li0.1500Ga0.0667Fe0.0333Ti0.0000P0.1500O0.6000,Li3.0Ga1.3333Fe0.6667Ti0.0P3O12,11.978107,
Li0.1500Ga0.0750Fe0.0250Ti0.0000P0.1500O0.6000,Li3.0Ga1.5Fe0.5Ti0.0P3O12,11.978107,
Li0.1500Ga0.0833Fe0.0167Ti0.0000P0.1500O0.6000,Li3.0Ga1.6667Fe0.3333Ti0.0P3O12,13.843395,
Li0.1500Ga0.0917Fe0.0083Ti0.0000P0.1500O0.6000,Li3.0Ga1.8333Fe0.1667Ti0.0P3O12,13.843395,
Li0.1500Ga0.1000Fe0.0000Ti0.0000P0.1500O0.6000,Li3.0Ga2.0Fe0.0Ti0.0P3O12,13.755412,
Li0.0556Ga0.0000Ti0.1111P0.1667O0.6667,Li1.0Ga0.0Ga0.0Ti2.0P3O12,7.7087817,
Li0.0642Ga0.0092Ti0.1009P0.1651O0.6605,Li1.1667Ga0.0Ga0.1667Ti1.8333P3O12,7.7087817,0.049269301812505134
Li0.0642Ga0.0092Ti0.1009P0.1651O0.6605,Li1.1667Ga0.1667Ga0.0Ti1.8333P3O12,7.7087817,
Li0.0727Ga0.0182Ti0.0909P0.1636O0.6545,Li1.3333Ga0.0Ga0.3333Ti1.6667P3O12,7.678768,0.028661709769986585
Li0.0727Ga0.0182Ti0.0909P0.1636O0.6545,Li1.3333Ga0.3333Ga0.0Ti1.6667P3O12,7.678768,
Li0.0811Ga0.0270Ti0.0811P0.1622O0.6486,Li1.5Ga0.0Ga0.5Ti1.5P3O12,7.7207913,0.018247155917217515
Li0.0811Ga0.0270Ti0.0811P0.1622O0.6486,Li1.5Ga0.1667Ga0.3333Ti1.5P3O12,7.7207913,0.02436157705094521
Li0.0811Ga0.0270Ti0.0811P0.1622O0.6486,Li1.5Ga0.3333Ga0.1667Ti1.5P3O12,7.7207913,0.03662619067484746
Li0.0811Ga0.0270Ti0.0811P0.1622O0.6486,Li1.5Ga0.5Ga0.0Ti1.5P3O12,7.7207913,
Li0.0893Ga0.0357Ti0.0714P0.1607O0.6429,Li1.6667Ga0.0Ga0.6667Ti1.3333P3O12,8.099321,0.012491177910171566
Li0.0893Ga0.0357Ti0.0714P0.1607O0.6429,Li1.6667Ga0.1667Ga0.5Ti1.3333P3O12,8.099321,0.01545702876025198
Li0.0893Ga0.0357Ti0.0714P0.1607O0.6429,Li1.6667Ga0.5Ga0.1667Ti1.3333P3O12,8.099321,0.031529031614997635
Li0.0893Ga0.0357Ti0.0714P0.1607O0.6429,Li1.6667Ga0.6667Ga0.0Ti1.3333P3O12,8.099321,
Li0.0973Ga0.0442Ti0.0619P0.1593O0.6372,Li1.8333Ga0.0Ga0.8333Ti1.1667P3O12,8.099321,0.009191301216567548
Li0.0973Ga0.0442Ti0.0619P0.1593O0.6372,Li1.8333Ga0.3333Ga0.5Ti1.1667P3O12,8.099321,0.013093705510113776
Li0.0973Ga0.0442Ti0.0619P0.1593O0.6372,Li1.8333Ga0.5Ga0.3333Ti1.1667P3O12,8.099321,0.01776733721047508
Li0.0973Ga0.0442Ti0.0619P0.1593O0.6372,Li1.8333Ga0.8333Ga0.0Ti1.1667P3O12,8.099321,
Li0.1053Ga0.0526Ti0.0526P0.1579O0.6316,Li2.0Ga0.0Ga1.0Ti1.0P3O12,8.099321,8.950338220617756e-05
Li0.1053Ga0.0526Ti0.0526P0.1579O0.6316,Li2.0Ga0.1667Ga0.8333Ti1.0P3O12,8.099321,0.007724846565085807
Li0.1053Ga0.0526Ti0.0526P0.1579O0.6316,Li2.0Ga0.3333Ga0.6667Ti1.0P3O12,8.099321,0.008887899455549946
Li0.1053Ga0.0526Ti0.0526P0.1579O0.6316,Li2.0Ga0.5Ga0.5Ti1.0P3O12,8.099321,0.011065524778245297
Li0.1053Ga0.0526Ti0.0526P0.1579O0.6316,Li2.0Ga0.6667Ga0.3333Ti1.0P3O12,8.099321,0.015171194737736694
Li0.1053Ga0.0526Ti0.0526P0.1579O0.6316,Li2.0Ga0.8333Ga0.1667Ti1.0P3O12,8.099321,0.023265816154816373
Li0.1053Ga0.0526Ti0.0526P0.1579O0.6316,Li2.0Ga1.0Ga0.0Ti1.0P3O12,8.099321,
Li0.1130Ga0.0609Ti0.0435P0.1565O0.6261,Li2.1667Ga0.0Ga1.1667Ti0.8333P3O12,6.7658024,0.003962489295509897
Li0.1130Ga0.0609Ti0.0435P0.1565O0.6261,Li2.1667Ga0.1667Ga1.0Ti0.8333P3O12,6.7658024,0.004109081318390854
Li0.1130Ga0.0609Ti0.0435P0.1565O0.6261,Li2.1667Ga0.5Ga0.6667Ti0.8333P3O12,6.7658024,1.4692837486179774e-06
Li0.1130Ga0.0609Ti0.0435P0.1565O0.6261,Li2.1667Ga0.6667Ga0.5Ti0.8333P3O12,6.7658024,1.41235330970433e-06
Li0.1130Ga0.0609Ti0.0435P0.1565O0.6261,Li2.1667Ga1.0Ga0.1667Ti0.8333P3O12,6.7658024,1.6276471009387173e-06
Li0.1130Ga0.0609Ti0.0435P0.1565O0.6261,Li2.1667Ga1.1667Ga0.0Ti0.8333P3O12,6.7658024,
Li0.1207Ga0.0690Ti0.0345P0.1552O0.6207,Li2.3333Ga0.0Ga1.3333Ti0.6667P3O12,6.7658024,0.0031974562511207336
Li0.1207Ga0.0690Ti0.0345P0.1552O0.6207,Li2.3333Ga0.3333Ga1.0Ti0.6667P3O12,6.7658024,0.0034234115691662965
Li0.1207Ga0.0690Ti0.0345P0.1552O0.6207,Li2.3333Ga0.5Ga0.8333Ti0.6667P3O12,6.7658024,1.9888110349767047e-06
Li0.1207Ga0.0690Ti0.0345P0.1552O0.6207,Li2.3333Ga0.8333Ga0.5Ti0.6667P3O12,6.7658024,1.7308267276102219e-06
Li0.1207Ga0.0690Ti0.0345P0.1552O0.6207,Li2.3333Ga1.0Ga0.3333Ti0.6667P3O12,6.7658024,1.7360415969120583e-06
Li0.1207Ga0.0690Ti0.0345P0.1552O0.6207,Li2.3333Ga1.3333Ga0.0Ti0.6667P3O12,6.7658024,
Li0.1282Ga0.0769Ti0.0256P0.1538O0.6154,Li2.5Ga0.0Ga1.5Ti0.5P3O12,6.7658024,0.002455638167984884
Li0.1282Ga0.0769Ti0.0256P0.1538O0.6154,Li2.5Ga0.1667Ga1.3333Ti0.5P3O12,6.7658024,0.002530591727510887
Li0.1282Ga0.0769Ti0.0256P0.1538O0.6154,Li2.5Ga0.3333Ga1.1667Ti0.5P3O12,6.7658024,0.002611122228895284
Li0.1282Ga0.0769Ti0.0256P0.1538O0.6154,Li2.5Ga0.5Ga1.0Ti0.5P3O12,6.7658024,0.0026975838940928496
Li0.1282Ga0.0769Ti0.0256P0.1538O0.6154,Li2.5Ga0.6667Ga0.8333Ti0.5P3O12,6.7658024,2.8445079310219573e-06
Li0.1282Ga0.0769Ti0.0256P0.1538O0.6154,Li2.5Ga0.8333Ga0.6667Ti0.5P3O12,6.7658024,2.6010159356681324e-06
Li0.1282Ga0.0769Ti0.0256P0.1538O0.6154,Li2.5Ga1.0Ga0.5Ti0.5P3O12,6.7658024,2.46495224586858e-06
Li0.1282Ga0.0769Ti0.0256P0.1538O0.6154,Li2.5Ga1.1667Ga0.3333Ti0.5P3O12,6.7658024,2.4411379144637924e-06
Li0.1282Ga0.0769Ti0.0256P0.1538O0.6154,Li2.5Ga1.3333Ga0.1667Ti0.5P3O12,6.7658024,2.660679484814488e-06
Li0.1282Ga0.0769Ti0.0256P0.1538O0.6154,Li2.5Ga1.5Ga0.0Ti0.5P3O12,6.7658024,
Li0.1356Ga0.0847Ti0.0169P0.1525O0.6102,Li2.6667Ga0.0Ga1.6667Ti0.3333P3O12,6.7658024,0.001726510667316847
Li0.1356Ga0.0847Ti0.0169P0.1525O0.6102,Li2.6667Ga0.1667Ga1.5Ti0.3333P3O12,6.7658024,0.0017751386991698157
Li0.1356Ga0.0847Ti0.0169P0.1525O0.6102,Li2.6667Ga0.5Ga1.1667Ti0.3333P3O12,6.7658024,0.001881944038067781
Li0.1356Ga0.0847Ti0.0169P0.1525O0.6102,Li2.6667Ga0.6667Ga1.0Ti0.3333P3O12,6.7658024,0.0019441068522713695
Li0.1356Ga0.0847Ti0.0169P0.1525O0.6102,Li2.6667Ga1.0Ga0.6667Ti0.3333P3O12,6.7658024,4.575238541274919e-06
Li0.1356Ga0.0847Ti0.0169P0.1525O0.6102,Li2.6667Ga1.1667Ga0.5Ti0.3333P3O12,6.7658024,4.343466297332854e-06
Li0.1356Ga0.0847Ti0.0169P0.1525O0.6102,Li2.6667Ga1.5Ga0.1667Ti0.3333P3O12,6.7658024,4.476681057051629e-06
Li0.1356Ga0.0847Ti0.0169P0.1525O0.6102,Li2.6667Ga1.6667Ga0.0Ti0.3333P3O12,6.7658024,
Li0.1429Ga0.0924Ti0.0084P0.1513O0.6050,Li2.8333Ga0.0Ga1.8333Ti0.1667P3O12,10.497339,0.0009538891523316296
Li0.1429Ga0.0924Ti0.0084P0.1513O0.6050,Li2.8333Ga0.3333Ga1.5Ti0.1667P3O12,10.497339,0.0010020970992738153
Li0.1429Ga0.0924Ti0.0084P0.1513O0.6050,Li2.8333Ga0.5Ga1.3333Ti0.1667P3O12,10.497339,0.001028203881479647
Li0.1429Ga0.0924Ti0.0084P0.1513O0.6050,Li2.8333Ga0.8333Ga1.0Ti0.1667P3O12,10.497339,0.0010875528879952451
Li0.1429Ga0.0924Ti0.0084P0.1513O0.6050,Li2.8333Ga1.0Ga0.8333Ti0.1667P3O12,10.497339,1.4509408364131386e-05
Li0.1429Ga0.0924Ti0.0084P0.1513O0.6050,Li2.8333Ga1.3333Ga0.5Ti0.1667P3O12,10.497339,1.2346725165951867e-05
Li0.1429Ga0.0924Ti0.0084P0.1513O0.6050,Li2.8333Ga1.5Ga0.3333Ti0.1667P3O12,10.497339,1.2097748284935565e-05
Li0.1429Ga0.0924Ti0.0084P0.1513O0.6050,Li2.8333Ga1.8333Ga0.0Ti0.1667P3O12,10.497339,
Li0.1500Ga0.1000Ti0.0000P0.1500O0.6000,Li3.0Ga0.0Ga2.0Ti0.0P3O12,13.755412,
Li0.1500Ga0.1000Ti0.0000P0.1500O0.6000,Li3.0Ga0.1667Ga1.8333Ti0.0P3O12,13.755412,