formula,original_formula,thermal_expansion,li ion conductivity
Li0.1429As0.0756Co0.0168Ti0.0084P0.1513O0.6050,Li2.8333As1.5Co0.3333Ti0.1667P3O12,11.860868,0.23170664986322742
Li0.1429As0.0924Co0.0000Ti0.0084P0.1513O0.6050,Li2.8333As1.8333Co0.0Ti0.1667P3O12,11.860868,
Li0.1500As0.0000Co0.1000Ti0.0000P0.1500O0.6000,Li3.0As0.0Co2.0Ti0.0P3O12,15.21023,
Li0.1500As0.0083Co0.0917Ti0.0000P0.1500O0.6000,Li3.0As0.1667Co1.8333Ti0.0P3O12,15.224806,
Li0.1500As0.0167Co0.0833Ti0.0000P0.1500O0.6000,Li3.0As0.3333Co1.6667Ti0.0P3O12,15.224806,
Li0.1500As0.0250Co0.0750Ti0.0000P0.1500O0.6000,Li3.0As0.5Co1.5Ti0.0P3O12,15.224806,
Li0.1500As0.0333Co0.0667Ti0.0000P0.1500O0.6000,Li3.0As0.6667Co1.3333Ti0.0P3O12,15.224806,
Li0.1500As0.0417Co0.0583Ti0.0000P0.1500O0.6000,Li3.0As0.8333Co1.1667Ti0.0P3O12,15.224806,
Li0.1500As0.0500Co0.0500Ti0.0000P0.1500O0.6000,Li3.0As1.0Co1.0Ti0.0P3O12,15.224806,
Li0.1500As0.0583Co0.0417Ti0.0000P0.1500O0.6000,Li3.0As1.1667Co0.8333Ti0.0P3O12,15.224806,
Li0.1500As0.0667Co0.0333Ti0.0000P0.1500O0.6000,Li3.0As1.3333Co0.6667Ti0.0P3O12,15.206924,
Li0.1500As0.0750Co0.0250Ti0.0000P0.1500O0.6000,Li3.0As1.5Co0.5Ti0.0P3O12,15.206924,
Li0.1500As0.0833Co0.0167Ti0.0000P0.1500O0.6000,Li3.0As1.6667Co0.3333Ti0.0P3O12,15.206924,
Li0.1500As0.0917Co0.0083Ti0.0000P0.1500O0.6000,Li3.0As1.8333Co0.1667Ti0.0P3O12,15.206924,
Li0.1500As0.1000Co0.0000Ti0.0000P0.1500O0.6000,Li3.0As2.0Co0.0Ti0.0P3O12,15.206924,
Li0.0556As0.0000Cr0.0000Ti0.1111P0.1667O0.6667,Li1.0As0.0Cr0.0Ti2.0P3O12,7.7087817,
Li0.0642As0.0000Cr0.0092Ti0.1009P0.1651O0.6605,Li1.1667As0.0Cr0.1667Ti1.8333P3O12,7.7087817,
Li0.0642As0.0092Cr0.0000Ti0.1009P0.1651O0.6605,Li1.1667As0.1667Cr0.0Ti1.8333P3O12,7.7087817,
Li0.0727As0.0000Cr0.0182Ti0.0909P0.1636O0.6545,Li1.3333As0.0Cr0.3333Ti1.6667P3O12,7.7087817,
Li0.0727As0.0182Cr0.0000Ti0.0909P0.1636O0.6545,Li1.3333As0.3333Cr0.0Ti1.6667P3O12,7.7087817,
Li0.0811As0.0000Cr0.0270Ti0.0811P0.1622O0.6486,Li1.5As0.0Cr0.5Ti1.5P3O12,7.750805,
Li0.0811As0.0090Cr0.0180Ti0.0811P0.1622O0.6486,Li1.5As0.1667Cr0.3333Ti1.5P3O12,7.750805,0.5372866045266953
Li0.0811As0.0180Cr0.0090Ti0.0811P0.1622O0.6486,Li1.5As0.3333Cr0.1667Ti1.5P3O12,7.750805,0.8079857622243802
Li0.0811As0.0270Cr0.0000Ti0.0811P0.1622O0.6486,Li1.5As0.5Cr0.0Ti1.5P3O12,7.750805,
Li0.0893As0.0000Cr0.0357Ti0.0714P0.1607O0.6429,Li1.6667As0.0Cr0.6667Ti1.3333P3O12,8.129335,
Li0.0893As0.0089Cr0.0268Ti0.0714P0.1607O0.6429,Li1.6667As0.1667Cr0.5Ti1.3333P3O12,8.129335,0.4786054668329581
Li0.0893As0.0268Cr0.0089Ti0.0714P0.1607O0.6429,Li1.6667As0.5Cr0.1667Ti1.3333P3O12,8.129335,0.8510648127618775
Li0.0893As0.0357Cr0.0000Ti0.0714P0.1607O0.6429,Li1.6667As0.6667Cr0.0Ti1.3333P3O12,8.129335,
Li0.0973As0.0000Cr0.0442Ti0.0619P0.1593O0.6372,Li1.8333As0.0Cr0.8333Ti1.1667P3O12,7.845156,
Li0.0973As0.0177Cr0.0265Ti0.0619P0.1593O0.6372,Li1.8333As0.3333Cr0.5Ti1.1667P3O12,8.129335,0.6068022731024557
Li0.0973As0.0265Cr0.0177Ti0.0619P0.1593O0.6372,Li1.8333As0.5Cr0.3333Ti1.1667P3O12,8.129335,0.7240886766403182
Li0.0973As0.0442Cr0.0000Ti0.0619P0.1593O0.6372,Li1.8333As0.8333Cr0.0Ti1.1667P3O12,8.129335,
Li0.1053As0.0000Cr0.0526Ti0.0526P0.1579O0.6316,Li2.0As0.0Cr1.0Ti1.0P3O12,7.845156,
Li0.1053As0.0088Cr0.0439Ti0.0526P0.1579O0.6316,Li2.0As0.1667Cr0.8333Ti1.0P3O12,7.845156,0.4217134038844324
Li0.1053As0.0175Cr0.0351Ti0.0526P0.1579O0.6316,Li2.0As0.3333Cr0.6667Ti1.0P3O12,8.129335,0.5623938087488329
Li0.1053As0.0263Cr0.0263Ti0.0526P0.1579O0.6316,Li2.0As0.5Cr0.5Ti1.0P3O12,8.129335,0.6407956309572712
Li0.1053As0.0351Cr0.0175Ti0.0526P0.1579O0.6316,Li2.0As0.6667Cr0.3333Ti1.0P3O12,8.129335,0.723038819635858
Li0.1053As0.0439Cr0.0088Ti0.0526P0.1579O0.6316,Li2.0As0.8333Cr0.1667Ti1.0P3O12,8.129335,0.8507821940253151
Li0.1053As0.0526Cr0.0000Ti0.0526P0.1579O0.6316,Li2.0As1.0Cr0.0Ti1.0P3O12,8.129335,
Li0.1130As0.0000Cr0.0609Ti0.0435P0.1565O0.6261,Li2.1667As0.0Cr1.1667Ti0.8333P3O12,13.286617,
Li0.1130As0.0087Cr0.0522Ti0.0435P0.1565O0.6261,Li2.1667As0.1667Cr1.0Ti0.8333P3O12,7.845156,0.6117418117920556
Li0.1130As0.0261Cr0.0348Ti0.0435P0.1565O0.6261,Li2.1667As0.5Cr0.6667Ti0.8333P3O12,8.129335,0.004695608660993788
Li0.1130As0.0348Cr0.0261Ti0.0435P0.1565O0.6261,Li2.1667As0.6667Cr0.5Ti0.8333P3O12,8.129335,0.0049225395822980475
Li0.1130As0.0522Cr0.0087Ti0.0435P0.1565O0.6261,Li2.1667As1.0Cr0.1667Ti0.8333P3O12,8.129335,0.025854358113087332
Li0.1130As0.0609Cr0.0000Ti0.0435P0.1565O0.6261,Li2.1667As1.1667Cr0.0Ti0.8333P3O12,8.129335,
Li0.1207As0.0000Cr0.0690Ti0.0345P0.1552O0.6207,Li2.3333As0.0Cr1.3333Ti0.6667P3O12,13.286617,
Li0.1207As0.0172Cr0.0517Ti0.0345P0.1552O0.6207,Li2.3333As0.3333Cr1.0Ti0.6667P3O12,7.845156,0.8351543701345662
Li0.1207As0.0259Cr0.0431Ti0.0345P0.1552O0.6207,Li2.3333As0.5Cr0.8333Ti0.6667P3O12,7.845156,0.0032594298010849465
Li0.1207As0.0431Cr0.0259Ti0.0345P0.1552O0.6207,Li2.3333As0.8333Cr0.5Ti0.6667P3O12,8.129335,0.00358789799973265
Li0.1207As0.0517Cr0.0172Ti0.0345P0.1552O0.6207,Li2.3333As1.0Cr0.3333Ti0.6667P3O12,8.129335,0.05375220334200948
Li0.1207As0.0690Cr0.0000Ti0.0345P0.1552O0.6207,Li2.3333As1.3333Cr0.0Ti0.6667P3O12,8.129335,
Li0.1282As0.0000Cr0.0769Ti0.0256P0.1538O0.6154,Li2.5As0.0Cr1.5Ti0.5P3O12,13.286617,
Li0.1282As0.0085Cr0.0684Ti0.0256P0.1538O0.6154,Li2.5As0.1667Cr1.3333Ti0.5P3O12,13.286617,0.6993358515851793
Li0.1282As0.0171Cr0.0598Ti0.0256P0.1538O0.6154,Li2.5As0.3333Cr1.1667Ti0.5P3O12,7.845156,0.8926607820483613
Li0.1282As0.0256Cr0.0513Ti0.0256P0.1538O0.6154,Li2.5As0.5Cr1.0Ti0.5P3O12,7.845156,0.9735051021415966
Li0.1282As0.0342Cr0.0427Ti0.0256P0.1538O0.6154,Li2.5As0.6667Cr0.8333Ti0.5P3O12,7.845156,0.002224985740412027
Li0.1282As0.0427Cr0.0342Ti0.0256P0.1538O0.6154,Li2.5As0.8333Cr0.6667Ti0.5P3O12,8.129335,0.0023499233464917978
Li0.1282As0.0513Cr0.0256Ti0.0256P0.1538O0.6154,Li2.5As1.0Cr0.5Ti0.5P3O12,8.129335,0.08154081464161338
Li0.1282As0.0598Cr0.0171Ti0.0256P0.1538O0.6154,Li2.5As1.1667Cr0.3333Ti0.5P3O12,8.129335,0.05931515955893128
Li0.1282As0.0684Cr0.0085Ti0.0256P0.1538O0.6154,Li2.5As1.3333Cr0.1667Ti0.5P3O12,8.129335,0.0320322597859228
Li0.1282As0.0769Cr0.0000Ti0.0256P0.1538O0.6154,Li2.5As1.5Cr0.0Ti0.5P3O12,8.129335,
Li0.1356As0.0000Cr0.0847Ti0.0169P0.1525O0.6102,Li2.6667As0.0Cr1.6667Ti0.3333P3O12,13.699678,
Li0.1356As0.0085Cr0.0763Ti0.0169P0.1525O0.6102,Li2.6667As0.1667Cr1.5Ti0.3333P3O12,13.286617,0.7796331319788098
Li0.1356As0.0254Cr0.0593Ti0.0169P0.1525O0.6102,Li2.6667As0.5Cr1.1667Ti0.3333P3O12,7.845156,1.06229320131866
Li0.1356As0.0339Cr0.0508Ti0.0169P0.1525O0.6102,Li2.6667As0.6667Cr1.0Ti0.3333P3O12,7.845156,1.0979797714622392
Li0.1356As0.0508Cr0.0339Ti0.0169P0.1525O0.6102,Li2.6667As1.0Cr0.6667Ti0.3333P3O12,8.129335,0.10694594294190805
Li0.1356As0.0593Cr0.0254Ti0.0169P0.1525O0.6102,Li2.6667As1.1667Cr0.5Ti0.3333P3O12,8.129335,0.09036422182465896
Li0.1356As0.0763Cr0.0085Ti0.0169P0.1525O0.6102,Li2.6667As1.5Cr0.1667Ti0.3333P3O12,8.129335,0.0380451566817877
Li0.1356As0.0847Cr0.0000Ti0.0169P0.1525O0.6102,Li2.6667As1.6667Cr0.0Ti0.3333P3O12,8.129335,
Li0.1429As0.0000Cr0.0924Ti0.0084P0.1513O0.6050,Li2.8333As0.0Cr1.8333Ti0.1667P3O12,17.431204,
Li0.1429As0.0168Cr0.0756Ti0.0084P0.1513O0.6050,Li2.8333As0.3333Cr1.5Ti0.1667P3O12,17.018145,1.188836465905083
Li0.1429As0.0252Cr0.0672Ti0.0084P0.1513O0.6050,Li2.8333As0.5Cr1.3333Ti0.1667P3O12,17.018145,1.2981756656333556
Li0.1429As0.0420Cr0.0504Ti0.0084P0.1513O0.6050,Li2.8333As0.8333Cr1.0Ti0.1667P3O12,11.576692,1.352747574787388
Li0.1429As0.0504Cr0.0420Ti0.0084P0.1513O0.6050,Li2.8333As1.0Cr0.8333Ti0.1667P3O12,11.576692,0.13934101508473645
Li0.1429As0.0672Cr0.0252Ti0.0084P0.1513O0.6050,Li2.8333As1.3333Cr0.5Ti0.1667P3O12,11.860868,0.10449233979035125
Li0.1429As0.0756Cr0.0168Ti0.0084P0.1513O0.6050,Li2.8333As1.5Cr0.3333Ti0.1667P3O12,11.860868,0.08007056628695686
Li0.1429As0.0924Cr0.0000Ti0.0084P0.1513O0.6050,Li2.8333As1.8333Cr0.0Ti0.1667P3O12,11.860868,
Li0.1500As0.0000Cr0.1000Ti0.0000P0.1500O0.6000,Li3.0As0.0Cr2.0Ti0.0P3O12,17.903326,
Li0.1500As0.0083Cr0.0917Ti0.0000P0.1500O0.6000,Li3.0As0.1667Cr1.8333Ti0.0P3O12,17.903326,
Li0.1500As0.0167Cr0.0833Ti0.0000P0.1500O0.6000,Li3.0As0.3333Cr1.6667Ti0.0P3O12,17.903326,
Li0.1500As0.0250Cr0.0750Ti0.0000P0.1500O0.6000,Li3.0As0.5Cr1.5Ti0.0P3O12,17.490267,
Li0.1500As0.0333Cr0.0667Ti0.0000P0.1500O0.6000,Li3.0As0.6667Cr1.3333Ti0.0P3O12,17.490267,
Li0.1500As0.0417Cr0.0583Ti0.0000P0.1500O0.6000,Li3.0As0.8333Cr1.1667Ti0.0P3O12,14.922748,
Li0.1500As0.0500Cr0.0500Ti0.0000P0.1500O0.6000,Li3.0As1.0Cr1.0Ti0.0P3O12,14.922748,
Li0.1500As0.0583Cr0.0417Ti0.0000P0.1500O0.6000,Li3.0As1.1667Cr0.8333Ti0.0P3O12,14.922748,
Li0.1500As0.0667Cr0.0333Ti0.0000P0.1500O0.6000,Li3.0As1.3333Cr0.6667Ti0.0P3O12,15.206924,
Li0.1500As0.0750Cr0.0250Ti0.0000P0.1500O0.6000,Li3.0As1.5Cr0.5Ti0.0P3O12,15.206924,
Li0.1500As0.0833Cr0.0167Ti0.0000P0.1500O0.6000,Li3.0As1.6667Cr0.3333Ti0.0P3O12,15.206924,
Li0.1500As0.0917Cr0.0083Ti0.0000P0.1500O0.6000,Li3.0As1.8333Cr0.1667Ti0.0P3O12,15.206924,
Li0.1500As0.1000Cr0.0000Ti0.0000P0.1500O0.6000,Li3.0As2.0Cr0.0Ti0.0P3O12,15.206924,
Li0.0556As0.0000Fe0.0000Ti0.1111P0.1667O0.6667,Li1.0As0.0Fe0.0Ti2.0P3O12,7.7087817,
Li0.0642As0.0000Fe0.0092Ti0.1009P0.1651O0.6605,Li1.1667As0.0Fe0.1667Ti1.8333P3O12,7.7087817,
Li0.0642As0.0092Fe0.0000Ti0.1009P0.1651O0.6605,Li1.1667As0.1667Fe0.0Ti1.8333P3O12,7.7087817,
Li0.0727As0.0000Fe0.0182Ti0.0909P0.1636O0.6545,Li1.3333As0.0Fe0.3333Ti1.6667P3O12,7.7087817,
Li0.0727As0.0182Fe0.0000Ti0.0909P0.1636O0.6545,Li1.3333As0.3333Fe0.0Ti1.6667P3O12,7.7087817,
Li0.0811As0.0000Fe0.0270Ti0.0811P0.1622O0.6486,Li1.5As0.0Fe0.5Ti1.5P3O12,6.671572,
Li0.0811As0.0090Fe0.0180Ti0.0811P0.1622O0.6486,Li1.5As0.1667Fe0.3333Ti1.5P3O12,7.750805,0.9584554097748291
Li0.0811As0.0180Fe0.0090Ti0.0811P0.1622O0.6486,Li1.5As0.3333Fe0.1667Ti1.5P3O12,7.750805,1.4513662506675782
Li0.0811As0.0270Fe0.0000Ti0.0811P0.1622O0.6486,Li1.5As0.5Fe0.0Ti1.5P3O12,7.750805,
Li0.0893As0.0000Fe0.0357Ti0.0714P0.1607O0.6429,Li1.6667As0.0Fe0.6667Ti1.3333P3O12,7.0501,
Li0.0893As0.0089Fe0.0268Ti0.0714P0.1607O0.6429,Li1.6667As0.1667Fe0.5Ti1.3333P3O12,7.0501,0.8704957297290905
Li0.0893As0.0268Fe0.0089Ti0.0714P0.1607O0.6429,Li1.6667As0.5Fe0.1667Ti1.3333P3O12,8.129335,1.496997947871835
Li0.0893As0.0357Fe0.0000Ti0.0714P0.1607O0.6429,Li1.6667As0.6667Fe0.0Ti1.3333P3O12,8.129335,
Li0.0973As0.0000Fe0.0442Ti0.0619P0.1593O0.6372,Li1.8333As0.0Fe0.8333Ti1.1667P3O12,6.972733,
Li0.0973As0.0177Fe0.0265Ti0.0619P0.1593O0.6372,Li1.8333As0.3333Fe0.5Ti1.1667P3O12,7.0501,1.1060496050183424
Li0.0973As0.0265Fe0.0177Ti0.0619P0.1593O0.6372,Li1.8333As0.5Fe0.3333Ti1.1667P3O12,8.129335,1.2224219681230126
Li0.0973As0.0442Fe0.0000Ti0.0619P0.1593O0.6372,Li1.8333As0.8333Fe0.0Ti1.1667P3O12,8.129335,
Li0.1053As0.0000Fe0.0526Ti0.0526P0.1579O0.6316,Li2.0As0.0Fe1.0Ti1.0P3O12,7.040515,
Li0.1053As0.0088Fe0.0439Ti0.0526P0.1579O0.6316,Li2.0As0.1667Fe0.8333Ti1.0P3O12,6.972733,0.7488706587957441
Li0.1053As0.0175Fe0.0351Ti0.0526P0.1579O0.6316,Li2.0As0.3333Fe0.6667Ti1.0P3O12,7.0501,1.008735409325465
Li0.1053As0.0263Fe0.0263Ti0.0526P0.1579O0.6316,Li2.0As0.5Fe0.5Ti1.0P3O12,7.0501,1.1028100977045197
Li0.1053As0.0351Fe0.0175Ti0.0526P0.1579O0.6316,Li2.0As0.6667Fe0.3333Ti1.0P3O12,8.129335,1.182393441192956
Li0.1053As0.0439Fe0.0088Ti0.0526P0.1579O0.6316,Li2.0As0.8333Fe0.1667Ti1.0P3O12,8.129335,1.4269529281875017
Li0.1053As0.0526Fe0.0000Ti0.0526P0.1579O0.6316,Li2.0As1.0Fe0.0Ti1.0P3O12,8.129335,
Li0.1130As0.0000Fe0.0609Ti0.0435P0.1565O0.6261,Li2.1667As0.0Fe1.1667Ti0.8333P3O12,7.040515,
Li0.1130As0.0087Fe0.0522Ti0.0435P0.1565O0.6261,Li2.1667As0.1667Fe1.0Ti0.8333P3O12,6.972733,0.6212965757158054
Li0.1130As0.0261Fe0.0348Ti0.0435P0.1565O0.6261,Li2.1667As0.5Fe0.6667Ti0.8333P3O12,7.0501,0.0006763219224937103
Li0.1130As0.0348Fe0.0261Ti0.0435P0.1565O0.6261,Li2.1667As0.6667Fe0.5Ti0.8333P3O12,7.0501,0.0006997794199158915
Li0.1130As0.0522Fe0.0087Ti0.0435P0.1565O0.6261,Li2.1667As1.0Fe0.1667Ti0.8333P3O12,8.129335,0.07811261480956816
Li0.1130As0.0609Fe0.0000Ti0.0435P0.1565O0.6261,Li2.1667As1.1667Fe0.0Ti0.8333P3O12,8.129335,
Li0.1207As0.0000Fe0.0690Ti0.0345P0.1552O0.6207,Li2.3333As0.0Fe1.3333Ti0.6667P3O12,7.040515,
Li0.1207As0.0172Fe0.0517Ti0.0345P0.1552O0.6207,Li2.3333As0.3333Fe1.0Ti0.6667P3O12,6.972733,0.8487789922550378
Li0.1207As0.0259Fe0.0431Ti0.0345P0.1552O0.6207,Li2.3333As0.5Fe0.8333Ti0.6667P3O12,6.972733,0.00045887715175564354
Li0.1207As0.0431Fe0.0259Ti0.0345P0.1552O0.6207,Li2.3333As0.8333Fe0.5Ti0.6667P3O12,7.0501,0.00048275235715018966
Li0.1207As0.0517Fe0.0172Ti0.0345P0.1552O0.6207,Li2.3333As1.0Fe0.3333Ti0.6667P3O12,8.129335,0.1281847866835666
Li0.1207As0.0690Fe0.0000Ti0.0345P0.1552O0.6207,Li2.3333As1.3333Fe0.0Ti0.6667P3O12,8.129335,
Li0.1282As0.0000Fe0.0769Ti0.0256P0.1538O0.6154,Li2.5As0.0Fe1.5Ti0.5P3O12,7.040515,
Li0.1282As0.0085Fe0.0684Ti0.0256P0.1538O0.6154,Li2.5As0.1667Fe1.3333Ti0.5P3O12,7.040515,0.6834917046127378
Li0.1282As0.0171Fe0.0598Ti0.0256P0.1538O0.6154,Li2.5As0.3333Fe1.1667Ti0.5P3O12,7.040515,0.9102712328249327
Li0.1282As0.0256Fe0.0513Ti0.0256P0.1538O0.6154,Li2.5As0.5Fe1.0Ti0.5P3O12,6.972733,0.9649847164781645
Li0.1282As0.0342Fe0.0427Ti0.0256P0.1538O0.6154,Li2.5As0.6667Fe0.8333Ti0.5P3O12,6.972733,0.00029395495960576765
Li0.1282As0.0427Fe0.0342Ti0.0256P0.1538O0.6154,Li2.5As0.8333Fe0.6667Ti0.5P3O12,7.0501,0.00029847559663519733
Li0.1282As0.0513Fe0.0256Ti0.0256P0.1538O0.6154,Li2.5As1.0Fe0.5Ti0.5P3O12,7.0501,0.1713366380632176
Li0.1282As0.0598Fe0.0171Ti0.0256P0.1538O0.6154,Li2.5As1.1667Fe0.3333Ti0.5P3O12,8.129335,0.1433488598302574
Li0.1282As0.0684Fe0.0085Ti0.0256P0.1538O0.6154,Li2.5As1.3333Fe0.1667Ti0.5P3O12,8.129335,0.09392664523983867
Li0.1282As0.0769Fe0.0000Ti0.0256P0.1538O0.6154,Li2.5As1.5Fe0.0Ti0.5P3O12,8.129335,
Li0.1356As0.0000Fe0.0847Ti0.0169P0.1525O0.6102,Li2.6667As0.0Fe1.6667Ti0.3333P3O12,7.040515,
Li0.1356As0.0085Fe0.0763Ti0.0169P0.1525O0.6102,Li2.6667As0.1667Fe1.5Ti0.3333P3O12,7.040515,0.7712486111985453
Li0.1356As0.0254Fe0.0593Ti0.0169P0.1525O0.6102,Li2.6667As0.5Fe1.1667Ti0.3333P3O12,7.040515,1.0673110039138616
Li0.1356As0.0339Fe0.0508Ti0.0169P0.1525O0.6102,Li2.6667As0.6667Fe1.0Ti0.3333P3O12,6.972733,1.0985031003873151
Li0.1356As0.0508Fe0.0339Ti0.0169P0.1525O0.6102,Li2.6667As1.0Fe0.6667Ti0.3333P3O12,7.0501,0.21812911935235146
Li0.1356As0.0593Fe0.0254Ti0.0169P0.1525O0.6102,Li2.6667As1.1667Fe0.5Ti0.3333P3O12,7.0501,0.19741986200340486
Li0.1356As0.0763Fe0.0085Ti0.0169P0.1525O0.6102,Li2.6667As1.5Fe0.1667Ti0.3333P3O12,8.129335,0.11030359420288227
Li0.1356As0.0847Fe0.0000Ti0.0169P0.1525O0.6102,Li2.6667As1.6667Fe0.0Ti0.3333P3O12,8.129335,
Li0.1429As0.0000Fe0.0924Ti0.0084P0.1513O0.6050,Li2.8333As0.0Fe1.8333Ti0.1667P3O12,10.772052,
Li0.1429As0.0168Fe0.0756Ti0.0084P0.1513O0.6050,Li2.8333As0.3333Fe1.5Ti0.1667P3O12,10.772052,1.225959662740023
Li0.1429As0.0252Fe0.0672Ti0.0084P0.1513O0.6050,Li2.8333As0.5Fe1.3333Ti0.1667P3O12,10.772052,1.3257352045166342
Li0.1429As0.0420Fe0.0504Ti0.0084P0.1513O0.6050,Li2.8333As0.8333Fe1.0Ti0.1667P3O12,10.704269,1.4019347473849268
Li0.1429As0.0504Fe0.0420Ti0.0084P0.1513O0.6050,Li2.8333As1.0Fe0.8333Ti0.1667P3O12,10.704269,0.2828371269202705
Li0.1429As0.0672Fe0.0252Ti0.0084P0.1513O0.6050,Li2.8333As1.3333Fe0.5Ti0.1667P3O12,10.781635,0.24698381010354273
Li0.1429As0.0756Fe0.0168Ti0.0084P0.1513O0.6050,Li2.8333As1.5Fe0.3333Ti0.1667P3O12,11.860868,0.2119752343143562
Li0.1429As0.0924Fe0.0000Ti0.0084P0.1513O0.6050,Li2.8333As1.8333Fe0.0Ti0.1667P3O12,11.860868,
Li0.1500As0.0000Fe0.1000Ti0.0000P0.1500O0.6000,Li3.0As0.0Fe2.0Ti0.0P3O12,13.206304,
Li0.1500As0.0083Fe0.0917Ti0.0000P0.1500O0.6000,Li3.0As0.1667Fe1.8333Ti0.0P3O12,13.332053,
Li0.1500As0.0167Fe0.0833Ti0.0000P0.1500O0.6000,Li3.0As0.3333Fe1.6667Ti0.0P3O12,13.332053,
Li0.1500As0.0250Fe0.0750Ti0.0000P0.1500O0.6000,Li3.0As0.5Fe1.5Ti0.0P3O12,13.332053,
Li0.1500As0.0333Fe0.0667Ti0.0000P0.1500O0.6000,Li3.0As0.6667Fe1.3333Ti0.0P3O12,13.332053,
Li0.1500As0.0417Fe0.0583Ti0.0000P0.1500O0.6000,Li3.0As0.8333Fe1.1667Ti0.0P3O12,13.332053,
Li0.1500As0.0500Fe0.0500Ti0.0000P0.1500O0.6000,Li3.0As1.0Fe1.0Ti0.0P3O12,13.264271,
Li0.1500As0.0583Fe0.0417Ti0.0000P0.1500O0.6000,Li3.0As1.1667Fe0.8333Ti0.0P3O12,13.264271,
Li0.1500As0.0667Fe0.0333Ti0.0000P0.1500O0.6000,Li3.0As1.3333Fe0.6667Ti0.0P3O12,13.341637,
Li0.1500As0.0750Fe0.0250Ti0.0000P0.1500O0.6000,Li3.0As1.5Fe0.5Ti0.0P3O12,13.341637,
Li0.1500As0.0833Fe0.0167Ti0.0000P0.1500O0.6000,Li3.0As1.6667Fe0.3333Ti0.0P3O12,15.206924,
Li0.1500As0.0917Fe0.0083Ti0.0000P0.1500O0.6000,Li3.0As1.8333Fe0.1667Ti0.0P3O12,15.206924,
Li0.1500As0.1000Fe0.0000Ti0.0000P0.1500O0.6000,Li3.0As2.0Fe0.0Ti0.0P3O12,15.206924,
Li0.0556As0.0000Ga0.0000Ti0.1111P0.1667O0.6667,Li1.0As0.0Ga0.0Ti2.0P3O12,7.7087817,
Li0.0642As0.0000Ga0.0092Ti0.1009P0.1651O0.6605,Li1.1667As0.0Ga0.1667Ti1.8333P3O12,7.7087817,
Li0.0642As0.0092Ga0.0000Ti0.1009P0.1651O0.6605,Li1.1667As0.1667Ga0.0Ti1.8333P3O12,7.7087817,
Li0.0727As0.0000Ga0.0182Ti0.0909P0.1636O0.6545,Li1.3333As0.0Ga0.3333Ti1.6667P3O12,7.678768,
Li0.0727As0.0182Ga0.0000Ti0.0909P0.1636O0.6545,Li1.3333As0.3333Ga0.0Ti1.6667P3O12,7.7087817,
Li0.0811As0.0000Ga0.0270Ti0.0811P0.1622O0.6486,Li1.5As0.0Ga0.5Ti1.5P3O12,7.7207913,
Li0.0811As0.0090Ga0.0180Ti0.0811P0.1622O0.6486,Li1.5As0.1667Ga0.3333Ti1.5P3O12,7.7207913,3.7648442384620755
Li0.0811As0.0180Ga0.0090Ti0.0811P0.1622O0.6486,Li1.5As0.3333Ga0.1667Ti1.5P3O12,7.750805,6.711246755267301
Li0.0811As0.0270Ga0.0000Ti0.0811P0.1622O0.6486,Li1.5As0.5Ga0.0Ti1.5P3O12,7.750805,
Li0.0893As0.0000Ga0.0357Ti0.0714P0.1607O0.6429,Li1.6667As0.0Ga0.6667Ti1.3333P3O12,8.099321,
Li0.0893As0.0089Ga0.0268Ti0.0714P0.1607O0.6429,Li1.6667As0.1667Ga0.5Ti1.3333P3O12,8.099321,3.411869118511176
Li0.0893B0.0268Ga0.0089Ti0.0714P0.1607O0.6429,Li1.6667B0.5Ga0.1667Ti1.3333P3O12,8.129335,15.309338686561128
Li0.0893As0.0357Ga0.0000Ti0.0714P0.1607O0.6429,Li1.6667As0.6667Ga0.0Ti1.3333P3O12,8.129335,
Li0.0973As0.0000Ga0.0442Ti0.0619P0.1593O0.6372,Li1.8333As0.0Ga0.8333Ti1.1667P3O12,8.099321,
Li0.0973As0.0177Ga0.0265Ti0.0619P0.1593O0.6372,Li1.8333As0.3333Ga0.5Ti1.1667P3O12,8.099321,5.1347191110617265
Li0.0973As0.0265Ga0.0177Ti0.0619P0.1593O0.6372,Li1.8333As0.5Ga0.3333Ti1.1667P3O12,8.099321,6.6302639658876155
Li0.0973As0.0442Ga0.0000Ti0.0619P0.1593O0.6372,Li1.8333As0.8333Ga0.0Ti1.1667P3O12,8.129335,
Li0.1053As0.0000Ga0.0526Ti0.0526P0.1579O0.6316,Li2.0As0.0Ga1.0Ti1.0P3O12,8.099321,
Li0.1053As0.0088Ga0.0439Ti0.0526P0.1579O0.6316,Li2.0As0.1667Ga0.8333Ti1.0P3O12,8.099321,3.0716429316931992
Li0.1053As0.0175Ga0.0351Ti0.0526P0.1579O0.6316,Li2.0As0.3333Ga0.6667Ti1.0P3O12,8.099321,4.8794695481953285
Li0.1053As0.0263Ga0.0263Ti0.0526P0.1579O0.6316,Li2.0As0.5Ga0.5Ti1.0P3O12,8.099321,6.252688035116587
Li0.1053B0.0351Ga0.0175Ti0.0526P0.1579O0.6316,Li2.0B0.6667Ga0.3333Ti1.0P3O12,8.099321,15.084202290904901
Li0.0893B0.0268As0.0089Ti0.0714P0.1607O0.6429,Li1.6667B0.5As0.1667Ti1.3333P3O12,8.129335,14.167054642944006
Li0.1053As0.0526Ga0.0000Ti0.0526P0.1579O0.6316,Li2.0As1.0Ga0.0Ti1.0P3O12,8.129335,
Li0.1130As0.0000Ga0.0609Ti0.0435P0.1565O0.6261,Li2.1667As0.0Ga1.1667Ti0.8333P3O12,6.7658024,
Li0.1130As0.0087Ga0.0522Ti0.0435P0.1565O0.6261,Li2.1667As0.1667Ga1.0Ti0.8333P3O12,8.099321,0.04422472784695726
Li0.1130As0.0261Ga0.0348Ti0.0435P0.1565O0.6261,Li2.1667As0.5Ga0.6667Ti0.8333P3O12,8.099321,0.137292833106572
Li0.1130As0.0348Ga0.0261Ti0.0435P0.1565O0.6261,Li2.1667As0.6667Ga0.5Ti0.8333P3O12,8.099321,0.16271333966743254
Li0.1130As0.0522Ga0.0087Ti0.0435P0.1565O0.6261,Li2.1667As1.0Ga0.1667Ti0.8333P3O12,8.129335,0.00020222096895123028
Li0.1130As0.0609Ga0.0000Ti0.0435P0.1565O0.6261,Li2.1667As1.1667Ga0.0Ti0.8333P3O12,8.129335,
Li0.1207As0.0000Ga0.0690Ti0.0345P0.1552O0.6207,Li2.3333As0.0Ga1.3333Ti0.6667P3O12,6.7658024,
Li0.1207As0.0172Ga0.0517Ti0.0345P0.1552O0.6207,Li2.3333As0.3333Ga1.0Ti0.6667P3O12,8.099321,0.03142976660553976
Li0.1207As0.0259Ga0.0431Ti0.0345P0.1552O0.6207,Li2.3333As0.5Ga0.8333Ti0.6667P3O12,8.099321,0.10142343731005639
Li0.1207As0.0431Ga0.0259Ti0.0345P0.1552O0.6207,Li2.3333As0.8333Ga0.5Ti0.6667P3O12,8.099321,0.1345931864411266
Li0.1207As0.0517Ga0.0172Ti0.0345P0.1552O0.6207,Li2.3333As1.0Ga0.3333Ti0.6667P3O12,8.099321,0.00018559860814444028
Li0.1207As0.0690Ga0.0000Ti0.0345P0.1552O0.6207,Li2.3333As1.3333Ga0.0Ti0.6667P3O12,8.129335,
Li0.1282As0.0000Ga0.0769Ti0.0256P0.1538O0.6154,Li2.5As0.0Ga1.5Ti0.5P3O12,6.7658024,