formula,original_formula,thermal_expansion,li ion conductivity
Li0.0973Fe0.0177Sc0.0265Ti0.0619P0.1593O0.6372,Li1.8333Fe0.3333Sc0.5Ti1.1667P3O12,6.484139,1.4365397178874095
Li0.0973Fe0.0265Sc0.0177Ti0.0619P0.1593O0.6372,Li1.8333Fe0.5Sc0.3333Ti1.1667P3O12,11.256537,1.9144411779539765
Li0.0973Fe0.0442Sc0.0000Ti0.0619P0.1593O0.6372,Li1.8333Fe0.8333Sc0.0Ti1.1667P3O12,6.972733,
Li0.1053Fe0.0000Sc0.0526Ti0.0526P0.1579O0.6316,Li2.0Fe0.0Sc1.0Ti1.0P3O12,6.484139,
Li0.1053Fe0.0088Sc0.0439Ti0.0526P0.1579O0.6316,Li2.0Fe0.1667Sc0.8333Ti1.0P3O12,6.484139,0.8287688664666976
Li0.1053Fe0.0175Sc0.0351Ti0.0526P0.1579O0.6316,Li2.0Fe0.3333Sc0.6667Ti1.0P3O12,6.484139,1.3414594307411456
Li0.1053Fe0.0263Sc0.0263Ti0.0526P0.1579O0.6316,Li2.0Fe0.5Sc0.5Ti1.0P3O12,6.83642,1.7219245898697504
Li0.1053Fe0.0351Sc0.0175Ti0.0526P0.1579O0.6316,Li2.0Fe0.6667Sc0.3333Ti1.0P3O12,11.256537,2.211049838658584
Li0.1053Fe0.0439Sc0.0088Ti0.0526P0.1579O0.6316,Li2.0Fe0.8333Sc0.1667Ti1.0P3O12,8.249395,3.0494094090939505
Li0.1053Fe0.0526Sc0.0000Ti0.0526P0.1579O0.6316,Li2.0Fe1.0Sc0.0Ti1.0P3O12,7.040515,
Li0.1130Fe0.0000Sc0.0609Ti0.0435P0.1565O0.6261,Li2.1667Fe0.0Sc1.1667Ti0.8333P3O12,6.484139,
Li0.1130Fe0.0087Sc0.0522Ti0.0435P0.1565O0.6261,Li2.1667Fe0.1667Sc1.0Ti0.8333P3O12,6.484139,0.22054272989382054
Li0.1130Fe0.0261Sc0.0348Ti0.0435P0.1565O0.6261,Li2.1667Fe0.5Sc0.6667Ti0.8333P3O12,6.83642,0.8078695553390772
Li0.1130Fe0.0348Sc0.0261Ti0.0435P0.1565O0.6261,Li2.1667Fe0.6667Sc0.5Ti0.8333P3O12,6.83642,0.9852225125400371
Li0.1130Fe0.0522Sc0.0087Ti0.0435P0.1565O0.6261,Li2.1667Fe1.0Sc0.1667Ti0.8333P3O12,8.249395,0.26072848312662694
Li0.1130Fe0.0609Sc0.0000Ti0.0435P0.1565O0.6261,Li2.1667Fe1.1667Sc0.0Ti0.8333P3O12,7.040515,
Li0.1207Fe0.0000Sc0.0690Ti0.0345P0.1552O0.6207,Li2.3333Fe0.0Sc1.3333Ti0.6667P3O12,6.484139,
Li0.1207Fe0.0172Sc0.0517Ti0.0345P0.1552O0.6207,Li2.3333Fe0.3333Sc1.0Ti0.6667P3O12,6.484139,0.34164780434202474
Li0.1207Fe0.0259Sc0.0431Ti0.0345P0.1552O0.6207,Li2.3333Fe0.5Sc0.8333Ti0.6667P3O12,6.83642,0.7280802978086218
Li0.1207Fe0.0431Sc0.0259Ti0.0345P0.1552O0.6207,Li2.3333Fe0.8333Sc0.5Ti0.6667P3O12,6.7590537,1.0527743399080942
Li0.1207Fe0.0517Sc0.0172Ti0.0345P0.1552O0.6207,Li2.3333Fe1.0Sc0.3333Ti0.6667P3O12,11.179172,0.37703439276875705
Li0.1207Fe0.0690Sc0.0000Ti0.0345P0.1552O0.6207,Li2.3333Fe1.3333Sc0.0Ti0.6667P3O12,7.040515,
Li0.1282Fe0.0000Sc0.0769Ti0.0256P0.1538O0.6154,Li2.5Fe0.0Sc1.5Ti0.5P3O12,6.484139,
Li0.1282Fe0.0085Sc0.0684Ti0.0256P0.1538O0.6154,Li2.5Fe0.1667Sc1.3333Ti0.5P3O12,6.484139,0.24840887729437494
Li0.1282Fe0.0171Sc0.0598Ti0.0256P0.1538O0.6154,Li2.5Fe0.3333Sc1.1667Ti0.5P3O12,6.484139,0.3658822819099511
Li0.1282Fe0.0256Sc0.0513Ti0.0256P0.1538O0.6154,Li2.5Fe0.5Sc1.0Ti0.5P3O12,6.83642,0.41856209108916936
Li0.1282Fe0.0342Sc0.0427Ti0.0256P0.1538O0.6154,Li2.5Fe0.6667Sc0.8333Ti0.5P3O12,6.83642,0.7625095757301398
Li0.1282Fe0.0427Sc0.0342Ti0.0256P0.1538O0.6154,Li2.5Fe0.8333Sc0.6667Ti0.5P3O12,6.7590537,0.9013487774265321
Li0.1282Fe0.0513Sc0.0256Ti0.0256P0.1538O0.6154,Li2.5Fe1.0Sc0.5Ti0.5P3O12,6.7590537,0.49380105902296784
Li0.1282Fe0.0598Sc0.0171Ti0.0256P0.1538O0.6154,Li2.5Fe1.1667Sc0.3333Ti0.5P3O12,11.246954,0.4085887474742777
Li0.1282Fe0.0684Sc0.0085Ti0.0256P0.1538O0.6154,Li2.5Fe1.3333Sc0.1667Ti0.5P3O12,8.317178,0.293965126840197
Li0.1282Fe0.0769Sc0.0000Ti0.0256P0.1538O0.6154,Li2.5Fe1.5Sc0.0Ti0.5P3O12,7.040515,
Li0.1356Fe0.0000Sc0.0847Ti0.0169P0.1525O0.6102,Li2.6667Fe0.0Sc1.6667Ti0.3333P3O12,6.484139,
Li0.1356Fe0.0085Sc0.0763Ti0.0169P0.1525O0.6102,Li2.6667Fe0.1667Sc1.5Ti0.3333P3O12,6.484139,0.282170246135449
Li0.1356Fe0.0254Sc0.0593Ti0.0169P0.1525O0.6102,Li2.6667Fe0.5Sc1.1667Ti0.3333P3O12,6.83642,0.46034917374784756
Li0.1356Fe0.0339Sc0.0508Ti0.0169P0.1525O0.6102,Li2.6667Fe0.6667Sc1.0Ti0.3333P3O12,6.83642,0.5098271648125112
Li0.1356Fe0.0508Sc0.0339Ti0.0169P0.1525O0.6102,Li2.6667Fe1.0Sc0.6667Ti0.3333P3O12,6.7590537,0.6391457832243014
Li0.1356Fe0.0593Sc0.0254Ti0.0169P0.1525O0.6102,Li2.6667Fe1.1667Sc0.5Ti0.3333P3O12,6.8268356,0.566382948463408
Li0.1356Fe0.0763Sc0.0085Ti0.0169P0.1525O0.6102,Li2.6667Fe1.5Sc0.1667Ti0.3333P3O12,8.317178,0.3294001548543354
Li0.1356Fe0.0847Sc0.0000Ti0.0169P0.1525O0.6102,Li2.6667Fe1.6667Sc0.0Ti0.3333P3O12,7.040515,
Li0.1429Fe0.0000Sc0.0924Ti0.0084P0.1513O0.6050,Li2.8333Fe0.0Sc1.8333Ti0.1667P3O12,10.380352,
Li0.1429Fe0.0168Sc0.0756Ti0.0084P0.1513O0.6050,Li2.8333Fe0.3333Sc1.5Ti0.1667P3O12,10.215678,0.4835844440238297
Li0.1429Fe0.0252Sc0.0672Ti0.0084P0.1513O0.6050,Li2.8333Fe0.5Sc1.3333Ti0.1667P3O12,10.567961,0.5586326834393326
Li0.1429Fe0.0420Sc0.0504Ti0.0084P0.1513O0.6050,Li2.8333Fe0.8333Sc1.0Ti0.1667P3O12,10.490595,0.6448790717287717
Li0.1429Fe0.0504Sc0.0420Ti0.0084P0.1513O0.6050,Li2.8333Fe1.0Sc0.8333Ti0.1667P3O12,10.490595,0.8664336663629782
Li0.1429Fe0.0672Sc0.0252Ti0.0084P0.1513O0.6050,Li2.8333Fe1.3333Sc0.5Ti0.1667P3O12,10.558377,0.7258067603276441
Li0.1429Fe0.0756Sc0.0168Ti0.0084P0.1513O0.6050,Li2.8333Fe1.5Sc0.3333Ti0.1667P3O12,14.978483,0.6021832219260723
Li0.1429Fe0.0924Sc0.0000Ti0.0084P0.1513O0.6050,Li2.8333Fe1.8333Sc0.0Ti0.1667P3O12,10.772052,
Li0.1500Fe0.0000Sc0.1000Ti0.0000P0.1500O0.6000,Li3.0Fe0.0Sc2.0Ti0.0P3O12,11.964293,
Li0.1500Fe0.0083Sc0.0917Ti0.0000P0.1500O0.6000,Li3.0Fe0.1667Sc1.8333Ti0.0P3O12,11.964293,
Li0.1500Fe0.0167Sc0.0833Ti0.0000P0.1500O0.6000,Li3.0Fe0.3333Sc1.6667Ti0.0P3O12,11.799619,
Li0.1500Fe0.0250Sc0.0750Ti0.0000P0.1500O0.6000,Li3.0Fe0.5Sc1.5Ti0.0P3O12,12.151901,
Li0.1500Fe0.0333Sc0.0667Ti0.0000P0.1500O0.6000,Li3.0Fe0.6667Sc1.3333Ti0.0P3O12,12.151901,
Li0.1500Fe0.0417Sc0.0583Ti0.0000P0.1500O0.6000,Li3.0Fe0.8333Sc1.1667Ti0.0P3O12,12.074535,
Li0.1500Fe0.0500Sc0.0500Ti0.0000P0.1500O0.6000,Li3.0Fe1.0Sc1.0Ti0.0P3O12,12.074535,
Li0.1500Fe0.0583Sc0.0417Ti0.0000P0.1500O0.6000,Li3.0Fe1.1667Sc0.8333Ti0.0P3O12,12.142318,
Li0.1500Fe0.0667Sc0.0333Ti0.0000P0.1500O0.6000,Li3.0Fe1.3333Sc0.6667Ti0.0P3O12,12.142318,
Li0.1500Fe0.0750Sc0.0250Ti0.0000P0.1500O0.6000,Li3.0Fe1.5Sc0.5Ti0.0P3O12,12.142318,
Li0.1500Fe0.0833Sc0.0167Ti0.0000P0.1500O0.6000,Li3.0Fe1.6667Sc0.3333Ti0.0P3O12,16.562422,
Li0.1500Fe0.0917Sc0.0083Ti0.0000P0.1500O0.6000,Li3.0Fe1.8333Sc0.1667Ti0.0P3O12,13.939172,
Li0.1500Fe0.1000Sc0.0000Ti0.0000P0.1500O0.6000,Li3.0Fe2.0Sc0.0Ti0.0P3O12,13.206304,
Li0.0556Fe0.0000Y0.0000Ti0.1111P0.1667O0.6667,Li1.0Fe0.0Y0.0Ti2.0P3O12,7.7087817,
Li0.0642Fe0.0000Y0.0092Ti0.1009P0.1651O0.6605,Li1.1667Fe0.0Y0.1667Ti1.8333P3O12,7.7087817,
Li0.0642Fe0.0092Y0.0000Ti0.1009P0.1651O0.6605,Li1.1667Fe0.1667Y0.0Ti1.8333P3O12,7.7087817,
Li0.0727Fe0.0000Y0.0182Ti0.0909P0.1636O0.6545,Li1.3333Fe0.0Y0.3333Ti1.6667P3O12,7.8326178,
Li0.0727Fe0.0182Y0.0000Ti0.0909P0.1636O0.6545,Li1.3333Fe0.3333Y0.0Ti1.6667P3O12,7.7087817,
Li0.0811Fe0.0000Y0.0270Ti0.0811P0.1622O0.6486,Li1.5Fe0.0Y0.5Ti1.5P3O12,7.874641,
Li0.0811Fe0.0090Y0.0180Ti0.0811P0.1622O0.6486,Li1.5Fe0.1667Y0.3333Ti1.5P3O12,7.874641,0.9855341006950353
Li0.0811Fe0.0180Y0.0090Ti0.0811P0.1622O0.6486,Li1.5Fe0.3333Y0.1667Ti1.5P3O12,7.750805,1.7526338931400782
Li0.0811Fe0.0270Y0.0000Ti0.0811P0.1622O0.6486,Li1.5Fe0.5Y0.0Ti1.5P3O12,6.671572,
Li0.0893Fe0.0000Y0.0357Ti0.0714P0.1607O0.6429,Li1.6667Fe0.0Y0.6667Ti1.3333P3O12,8.253172,
Li0.0893Fe0.0089Y0.0268Ti0.0714P0.1607O0.6429,Li1.6667Fe0.1667Y0.5Ti1.3333P3O12,8.253172,0.8965445378885037
Li0.0893Fe0.0268Y0.0089Ti0.0714P0.1607O0.6429,Li1.6667Fe0.5Y0.1667Ti1.3333P3O12,7.0501,2.1515692412638567
Li0.0893Fe0.0357Y0.0000Ti0.0714P0.1607O0.6429,Li1.6667Fe0.6667Y0.0Ti1.3333P3O12,7.0501,
Li0.0973Fe0.0000Y0.0442Ti0.0619P0.1593O0.6372,Li1.8333Fe0.0Y0.8333Ti1.1667P3O12,8.253172,
Li0.0973Fe0.0177Y0.0265Ti0.0619P0.1593O0.6372,Li1.8333Fe0.3333Y0.5Ti1.1667P3O12,8.253172,1.380672593042159
Li0.0973Fe0.0265Y0.0177Ti0.0619P0.1593O0.6372,Li1.8333Fe0.5Y0.3333Ti1.1667P3O12,7.173936,1.8417883263889405
Li0.0973Fe0.0442Y0.0000Ti0.0619P0.1593O0.6372,Li1.8333Fe0.8333Y0.0Ti1.1667P3O12,6.972733,
Li0.1053Fe0.0000Y0.0526Ti0.0526P0.1579O0.6316,Li2.0Fe0.0Y1.0Ti1.0P3O12,8.253172,
Li0.1053Fe0.0088Y0.0439Ti0.0526P0.1579O0.6316,Li2.0Fe0.1667Y0.8333Ti1.0P3O12,8.253172,0.8007619306671537
Li0.1053Fe0.0175Y0.0351Ti0.0526P0.1579O0.6316,Li2.0Fe0.3333Y0.6667Ti1.0P3O12,8.253172,1.3121257939603816
Li0.1053Fe0.0263Y0.0263Ti0.0526P0.1579O0.6316,Li2.0Fe0.5Y0.5Ti1.0P3O12,7.173936,1.6919168319486926
Li0.1053Fe0.0351Y0.0175Ti0.0526P0.1579O0.6316,Li2.0Fe0.6667Y0.3333Ti1.0P3O12,7.173936,2.1401341545455796
Li0.1053Fe0.0439Y0.0088Ti0.0526P0.1579O0.6316,Li2.0Fe0.8333Y0.1667Ti1.0P3O12,6.972733,2.8531534318022636
Li0.1053Fe0.0526Y0.0000Ti0.0526P0.1579O0.6316,Li2.0Fe1.0Y0.0Ti1.0P3O12,7.040515,
Li0.1130Fe0.0000Y0.0609Ti0.0435P0.1565O0.6261,Li2.1667Fe0.0Y1.1667Ti0.8333P3O12,7.013641,
Li0.1130Fe0.0087Y0.0522Ti0.0435P0.1565O0.6261,Li2.1667Fe0.1667Y1.0Ti0.8333P3O12,8.253172,0.07295086301482683
Li0.1130Fe0.0261Y0.0348Ti0.0435P0.1565O0.6261,Li2.1667Fe0.5Y0.6667Ti0.8333P3O12,7.173936,0.3949003530445667
Li0.1130Fe0.0348Y0.0261Ti0.0435P0.1565O0.6261,Li2.1667Fe0.6667Y0.5Ti0.8333P3O12,7.173936,0.500621367261983
Li0.1130Fe0.0522Y0.0087Ti0.0435P0.1565O0.6261,Li2.1667Fe1.0Y0.1667Ti0.8333P3O12,6.972733,0.10685163599708132
Li0.1130Fe0.0609Y0.0000Ti0.0435P0.1565O0.6261,Li2.1667Fe1.1667Y0.0Ti0.8333P3O12,7.040515,
Li0.1207Fe0.0000Y0.0690Ti0.0345P0.1552O0.6207,Li2.3333Fe0.0Y1.3333Ti0.6667P3O12,7.013641,
Li0.1207Fe0.0172Y0.0517Ti0.0345P0.1552O0.6207,Li2.3333Fe0.3333Y1.0Ti0.6667P3O12,8.253172,0.11063265223278587
Li0.1207Fe0.0259Y0.0431Ti0.0345P0.1552O0.6207,Li2.3333Fe0.5Y0.8333Ti0.6667P3O12,7.173936,0.3441656185364703
Li0.1207Fe0.0431Y0.0259Ti0.0345P0.1552O0.6207,Li2.3333Fe0.8333Y0.5Ti0.6667P3O12,7.096569,0.5347503567793549
Li0.1207Fe0.0517Y0.0172Ti0.0345P0.1552O0.6207,Li2.3333Fe1.0Y0.3333Ti0.6667P3O12,7.096569,0.12474943288988229
Li0.1207Fe0.0690Y0.0000Ti0.0345P0.1552O0.6207,Li2.3333Fe1.3333Y0.0Ti0.6667P3O12,7.040515,
Li0.1282Fe0.0000Y0.0769Ti0.0256P0.1538O0.6154,Li2.5Fe0.0Y1.5Ti0.5P3O12,7.013641,
Li0.1282Fe0.0085Y0.0684Ti0.0256P0.1538O0.6154,Li2.5Fe0.1667Y1.3333Ti0.5P3O12,7.013641,0.08605598402562331
Li0.1282Fe0.0171Y0.0598Ti0.0256P0.1538O0.6154,Li2.5Fe0.3333Y1.1667Ti0.5P3O12,7.0560336,0.116959526926679
Li0.1282Fe0.0256Y0.0513Ti0.0256P0.1538O0.6154,Li2.5Fe0.5Y1.0Ti0.5P3O12,7.173936,0.1307421850778136
Li0.1282Fe0.0342Y0.0427Ti0.0256P0.1538O0.6154,Li2.5Fe0.6667Y0.8333Ti0.5P3O12,7.173936,0.3610246370092096
Li0.1282Fe0.0427Y0.0342Ti0.0256P0.1538O0.6154,Li2.5Fe0.8333Y0.6667Ti0.5P3O12,7.096569,0.4460020090201145
Li0.1282Fe0.0513Y0.0256Ti0.0256P0.1538O0.6154,Li2.5Fe1.0Y0.5Ti0.5P3O12,7.096569,0.13493091207034413
Li0.1282Fe0.0598Y0.0171Ti0.0256P0.1538O0.6154,Li2.5Fe1.1667Y0.3333Ti0.5P3O12,7.164351,0.12922072638532042
Li0.1282Fe0.0684Y0.0085Ti0.0256P0.1538O0.6154,Li2.5Fe1.3333Y0.1667Ti0.5P3O12,7.040515,0.11478270150289273
Li0.1282Fe0.0769Y0.0000Ti0.0256P0.1538O0.6154,Li2.5Fe1.5Y0.0Ti0.5P3O12,7.040515,
Li0.1356Fe0.0000Y0.0847Ti0.0169P0.1525O0.6102,Li2.6667Fe0.0Y1.6667Ti0.3333P3O12,7.013641,
Li0.1356Fe0.0085Y0.0763Ti0.0169P0.1525O0.6102,Li2.6667Fe0.1667Y1.5Ti0.3333P3O12,7.013641,0.09585695962620562
Li0.1356Fe0.0254Y0.0593Ti0.0169P0.1525O0.6102,Li2.6667Fe0.5Y1.1667Ti0.3333P3O12,5.9768004,0.1410063224454028
Li0.1356Fe0.0339Y0.0508Ti0.0169P0.1525O0.6102,Li2.6667Fe0.6667Y1.0Ti0.3333P3O12,7.173936,0.15493832050284168
Li0.1356Fe0.0508Y0.0339Ti0.0169P0.1525O0.6102,Li2.6667Fe1.0Y0.6667Ti0.3333P3O12,7.096569,0.14200057599192198
Li0.1356Fe0.0593Y0.0254Ti0.0169P0.1525O0.6102,Li2.6667Fe1.1667Y0.5Ti0.3333P3O12,7.164351,0.14058013175118628
Li0.1356Fe0.0763Y0.0085Ti0.0169P0.1525O0.6102,Li2.6667Fe1.5Y0.1667Ti0.3333P3O12,7.040515,0.121567812488394
Li0.1356Fe0.0847Y0.0000Ti0.0169P0.1525O0.6102,Li2.6667Fe1.6667Y0.0Ti0.3333P3O12,7.040515,
Li0.1429Fe0.0000Y0.0924Ti0.0084P0.1513O0.6050,Li2.8333Fe0.0Y1.8333Ti0.1667P3O12,10.745177,
Li0.1429Fe0.0168Y0.0756Ti0.0084P0.1513O0.6050,Li2.8333Fe0.3333Y1.5Ti0.1667P3O12,10.745177,0.14453543604392596
Li0.1429Fe0.0252Y0.0672Ti0.0084P0.1513O0.6050,Li2.8333Fe0.5Y1.3333Ti0.1667P3O12,9.665944,0.16484393156592708
Li0.1429Fe0.0420Y0.0504Ti0.0084P0.1513O0.6050,Li2.8333Fe0.8333Y1.0Ti0.1667P3O12,10.828106,0.19918234496733914
Li0.1429Fe0.0504Y0.0420Ti0.0084P0.1513O0.6050,Li2.8333Fe1.0Y0.8333Ti0.1667P3O12,10.828106,0.16144327984109677
Li0.1429Fe0.0672Y0.0252Ti0.0084P0.1513O0.6050,Li2.8333Fe1.3333Y0.5Ti0.1667P3O12,10.895888,0.15539106349307047
Li0.1429Fe0.0756Y0.0168Ti0.0084P0.1513O0.6050,Li2.8333Fe1.5Y0.3333Ti0.1667P3O12,10.895888,0.1464518803090903
Li0.1429Fe0.0924Y0.0000Ti0.0084P0.1513O0.6050,Li2.8333Fe1.8333Y0.0Ti0.1667P3O12,10.772052,
Li0.1500Fe0.0000Y0.1000Ti0.0000P0.1500O0.6000,Li3.0Fe0.0Y2.0Ti0.0P3O12,14.091233,
Li0.1500Fe0.0083Y0.0917Ti0.0000P0.1500O0.6000,Li3.0Fe0.1667Y1.8333Ti0.0P3O12,14.091233,
Li0.1500Fe0.0167Y0.0833Ti0.0000P0.1500O0.6000,Li3.0Fe0.3333Y1.6667Ti0.0P3O12,14.091233,
Li0.1500Fe0.0250Y0.0750Ti0.0000P0.1500O0.6000,Li3.0Fe0.5Y1.5Ti0.0P3O12,12.225945,
Li0.1500Fe0.0333Y0.0667Ti0.0000P0.1500O0.6000,Li3.0Fe0.6667Y1.3333Ti0.0P3O12,12.225945,
Li0.1500Fe0.0417Y0.0583Ti0.0000P0.1500O0.6000,Li3.0Fe0.8333Y1.1667Ti0.0P3O12,13.388107,
Li0.1500Fe0.0500Y0.0500Ti0.0000P0.1500O0.6000,Li3.0Fe1.0Y1.0Ti0.0P3O12,13.388107,
Li0.1500Fe0.0583Y0.0417Ti0.0000P0.1500O0.6000,Li3.0Fe1.1667Y0.8333Ti0.0P3O12,13.45589,
Li0.1500Fe0.0667Y0.0333Ti0.0000P0.1500O0.6000,Li3.0Fe1.3333Y0.6667Ti0.0P3O12,13.45589,
Li0.1500Fe0.0750Y0.0250Ti0.0000P0.1500O0.6000,Li3.0Fe1.5Y0.5Ti0.0P3O12,13.45589,
Li0.1500Fe0.0833Y0.0167Ti0.0000P0.1500O0.6000,Li3.0Fe1.6667Y0.3333Ti0.0P3O12,13.45589,
Li0.1500Fe0.0917Y0.0083Ti0.0000P0.1500O0.6000,Li3.0Fe1.8333Y0.1667Ti0.0P3O12,13.332053,
Li0.1500Fe0.1000Y0.0000Ti0.0000P0.1500O0.6000,Li3.0Fe2.0Y0.0Ti0.0P3O12,13.206304,
Li0.0556Fe0.0000Hf0.0000Ti0.1111P0.1667O0.6667,Li1.0Fe0.0Hf0.0Ti2.0P3O12,7.7087817,
Li0.0642Fe0.0000Hf0.0092Ti0.1009P0.1651O0.6605,Li1.1667Fe0.0Hf0.1667Ti1.8333P3O12,7.7087817,
Li0.0642Fe0.0092Hf0.0000Ti0.1009P0.1651O0.6605,Li1.1667Fe0.1667Hf0.0Ti1.8333P3O12,7.7087817,
Li0.0727Fe0.0000Hf0.0182Ti0.0909P0.1636O0.6545,Li1.3333Fe0.0Hf0.3333Ti1.6667P3O12,7.7087817,
Li0.0727Fe0.0182Hf0.0000Ti0.0909P0.1636O0.6545,Li1.3333Fe0.3333Hf0.0Ti1.6667P3O12,7.7087817,
Li0.0811Fe0.0000Hf0.0270Ti0.0811P0.1622O0.6486,Li1.5Fe0.0Hf0.5Ti1.5P3O12,7.750805,
Li0.0811Fe0.0090Hf0.0180Ti0.0811P0.1622O0.6486,Li1.5Fe0.1667Hf0.3333Ti1.5P3O12,7.750805,0.09601622497150142
Li0.0811Fe0.0180Hf0.0090Ti0.0811P0.1622O0.6486,Li1.5Fe0.3333Hf0.1667Ti1.5P3O12,7.750805,0.19943575379943487
Li0.0811Fe0.0270Hf0.0000Ti0.0811P0.1622O0.6486,Li1.5Fe0.5Hf0.0Ti1.5P3O12,6.671572,
Li0.0893Fe0.0000Hf0.0357Ti0.0714P0.1607O0.6429,Li1.6667Fe0.0Hf0.6667Ti1.3333P3O12,8.1233835,
Li0.0893Fe0.0089Hf0.0268Ti0.0714P0.1607O0.6429,Li1.6667Fe0.1667Hf0.5Ti1.3333P3O12,8.129335,0.08389012142355647
Li0.0893Fe0.0268Hf0.0089Ti0.0714P0.1607O0.6429,Li1.6667Fe0.5Hf0.1667Ti1.3333P3O12,7.0501,0.2607010029753376
Li0.0893Fe0.0357Hf0.0000Ti0.0714P0.1607O0.6429,Li1.6667Fe0.6667Hf0.0Ti1.3333P3O12,7.0501,
Li0.0973Fe0.0000Hf0.0442Ti0.0619P0.1593O0.6372,Li1.8333Fe0.0Hf0.8333Ti1.1667P3O12,8.1233835,
Li0.0973Fe0.0177Hf0.0265Ti0.0619P0.1593O0.6372,Li1.8333Fe0.3333Hf0.5Ti1.1667P3O12,8.129335,0.1393445338312808
Li0.0973Fe0.0265Hf0.0177Ti0.0619P0.1593O0.6372,Li1.8333Fe0.5Hf0.3333Ti1.1667P3O12,7.0501,0.2033154204804359
Li0.0973Fe0.0442Hf0.0000Ti0.0619P0.1593O0.6372,Li1.8333Fe0.8333Hf0.0Ti1.1667P3O12,6.972733,
Li0.1053Fe0.0000Hf0.0526Ti0.0526P0.1579O0.6316,Li2.0Fe0.0Hf1.0Ti1.0P3O12,8.1233835,
Li0.1053Fe0.0088Hf0.0439Ti0.0526P0.1579O0.6316,Li2.0Fe0.1667Hf0.8333Ti1.0P3O12,8.1233835,0.07377762829598489
Li0.1053Fe0.0175Hf0.0351Ti0.0526P0.1579O0.6316,Li2.0Fe0.3333Hf0.6667Ti1.0P3O12,8.1233835,0.13031145831491484
Li0.1053Fe0.0263Hf0.0263Ti0.0526P0.1579O0.6316,Li2.0Fe0.5Hf0.5Ti1.0P3O12,7.0501,0.18047974970067676
Li0.1053Fe0.0351Hf0.0175Ti0.0526P0.1579O0.6316,Li2.0Fe0.6667Hf0.3333Ti1.0P3O12,7.0501,0.24955663039798773
Li0.1053Fe0.0439Hf0.0088Ti0.0526P0.1579O0.6316,Li2.0Fe0.8333Hf0.1667Ti1.0P3O12,6.972733,0.3745252331098731
Li0.1053Fe0.0526Hf0.0000Ti0.0526P0.1579O0.6316,Li2.0Fe1.0Hf0.0Ti1.0P3O12,7.040515,
Li0.1130Fe0.0000Hf0.0609Ti0.0435P0.1565O0.6261,Li2.1667Fe0.0Hf1.1667Ti0.8333P3O12,7.980404,
Li0.1130Fe0.0087Hf0.0522Ti0.0435P0.1565O0.6261,Li2.1667Fe0.1667Hf1.0Ti0.8333P3O12,8.1233835,0.009536441082786678
Li0.1130Fe0.0261Hf0.0348Ti0.0435P0.1565O0.6261,Li2.1667Fe0.5Hf0.6667Ti0.8333P3O12,7.0441475,0.018381438731734107
Li0.1130Fe0.0348Hf0.0261Ti0.0435P0.1565O0.6261,Li2.1667Fe0.6667Hf0.5Ti0.8333P3O12,7.0501,0.022974855310703382
Li0.1130Fe0.0522Hf0.0087Ti0.0435P0.1565O0.6261,Li2.1667Fe1.0Hf0.1667Ti0.8333P3O12,6.972733,0.10486621788967163
Li0.1130Fe0.0609Hf0.0000Ti0.0435P0.1565O0.6261,Li2.1667Fe1.1667Hf0.0Ti0.8333P3O12,7.040515,
Li0.1207Fe0.0000Hf0.0690Ti0.0345P0.1552O0.6207,Li2.3333Fe0.0Hf1.3333Ti0.6667P3O12,7.980404,
Li0.1207Fe0.0172Hf0.0517Ti0.0345P0.1552O0.6207,Li2.3333Fe0.3333Hf1.0Ti0.6667P3O12,8.1233835,0.01124083093599846
Li0.1207Fe0.0259Hf0.0431Ti0.0345P0.1552O0.6207,Li2.3333Fe0.5Hf0.8333Ti0.6667P3O12,7.0441475,0.01681705594716951
Li0.1207Fe0.0431Hf0.0259Ti0.0345P0.1552O0.6207,Li2.3333Fe0.8333Hf0.5Ti0.6667P3O12,6.972733,0.02412910314996676
Li0.1207Fe0.0517Hf0.0172Ti0.0345P0.1552O0.6207,Li2.3333Fe1.0Hf0.3333Ti0.6667P3O12,6.972733,0.13976475353398354
Li0.1207Fe0.0690Hf0.0000Ti0.0345P0.1552O0.6207,Li2.3333Fe1.3333Hf0.0Ti0.6667P3O12,7.040515,
Li0.1282Fe0.0000Hf0.0769Ti0.0256P0.1538O0.6154,Li2.5Fe0.0Hf1.5Ti0.5P3O12,7.980404,
Li0.1282Fe0.0085Hf0.0684Ti0.0256P0.1538O0.6154,Li2.5Fe0.1667Hf1.3333Ti0.5P3O12,7.980404,0.010683327721372858
Li0.1282Fe0.0171Hf0.0598Ti0.0256P0.1538O0.6154,Li2.5Fe0.3333Hf1.1667Ti0.5P3O12,7.980404,0.012364523690187996
Li0.1282Fe0.0256Hf0.0513Ti0.0256P0.1538O0.6154,Li2.5Fe0.5Hf1.0Ti0.5P3O12,7.0441475,0.013054402200749101
Li0.1282Fe0.0342Hf0.0427Ti0.0256P0.1538O0.6154,Li2.5Fe0.6667Hf0.8333Ti0.5P3O12,7.0441475,0.017916256069290714
Li0.1282Fe0.0427Hf0.0342Ti0.0256P0.1538O0.6154,Li2.5Fe0.8333Hf0.6667Ti0.5P3O12,6.9667807,0.020573028371183234
Li0.1282Fe0.0513Hf0.0256Ti0.0256P0.1538O0.6154,Li2.5Fe1.0Hf0.5Ti0.5P3O12,6.972733,0.1645088043791386
Li0.1282Fe0.0598Hf0.0171Ti0.0256P0.1538O0.6154,Li2.5Fe1.1667Hf0.3333Ti0.5P3O12,7.040515,0.14452813614752058
Li0.1282Fe0.0684Hf0.0085Ti0.0256P0.1538O0.6154,Li2.5Fe1.3333Hf0.1667Ti0.5P3O12,7.040515,0.11339684042949687
Li0.1282Fe0.0769Hf0.0000Ti0.0256P0.1538O0.6154,Li2.5Fe1.5Hf0.0Ti0.5P3O12,7.040515,
Li0.1356Fe0.0000Hf0.0847Ti0.0169P0.1525O0.6102,Li2.6667Fe0.0Hf1.6667Ti0.3333P3O12,7.980404,
Li0.1356Fe0.0085Hf0.0763Ti0.0169P0.1525O0.6102,Li2.6667Fe0.1667Hf1.5Ti0.3333P3O12,7.980404,0.011663034545693646
Li0.1356Fe0.0254Hf0.0593Ti0.0169P0.1525O0.6102,Li2.6667Fe0.5Hf1.1667Ti0.3333P3O12,6.9011664,0.014242505242910635
Li0.1356Fe0.0339Hf0.0508Ti0.0169P0.1525O0.6102,Li2.6667Fe0.6667Hf1.0Ti0.3333P3O12,7.0441475,0.015023105600456778
Li0.1356Fe0.0508Hf0.0339Ti0.0169P0.1525O0.6102,Li2.6667Fe1.0Hf0.6667Ti0.3333P3O12,6.9667807,0.18313540870060024
Li0.1356Fe0.0593Hf0.0254Ti0.0169P0.1525O0.6102,Li2.6667Fe1.1667Hf0.5Ti0.3333P3O12,7.040515,0.1703574579621783
Li0.1356Fe0.0763Hf0.0085Ti0.0169P0.1525O0.6102,Li2.6667Fe1.5Hf0.1667Ti0.3333P3O12,7.040515,0.11825732582721188
Li0.1356Fe0.0847Hf0.0000Ti0.0169P0.1525O0.6102,Li2.6667Fe1.6667Hf0.0Ti0.3333P3O12,7.040515,
Li0.1429Fe0.0000Hf0.0924Ti0.0084P0.1513O0.6050,Li2.8333Fe0.0Hf1.8333Ti0.1667P3O12,9.871589,
Li0.1429Fe0.0168Hf0.0756Ti0.0084P0.1513O0.6050,Li2.8333Fe0.3333Hf1.5Ti0.1667P3O12,11.711937,0.01704293921288768
Li0.1429Fe0.0252Hf0.0672Ti0.0084P0.1513O0.6050,Li2.8333Fe0.5Hf1.3333Ti0.1667P3O12,10.632704,0.01820793029002759
Li0.1429Fe0.0420Hf0.0504Ti0.0084P0.1513O0.6050,Li2.8333Fe0.8333Hf1.0Ti0.1667P3O12,10.698318,0.021626854677789333
Li0.1429Fe0.0504Hf0.0420Ti0.0084P0.1513O0.6050,Li2.8333Fe1.0Hf0.8333Ti0.1667P3O12,10.698318,0.1979120835835595
Li0.1429Fe0.0672Hf0.0252Ti0.0084P0.1513O0.6050,Li2.8333Fe1.3333Hf0.5Ti0.1667P3O12,10.772052,0.17783262697125926
Li0.1429Fe0.0756Hf0.0168Ti0.0084P0.1513O0.6050,Li2.8333Fe1.5Hf0.3333Ti0.1667P3O12,10.772052,0.1574487666468159
Li0.1429Fe0.0924Hf0.0000Ti0.0084P0.1513O0.6050,Li2.8333Fe1.8333Hf0.0Ti0.1667P3O12,10.772052,
Li0.1500Fe0.0000Hf0.1000Ti0.0000P0.1500O0.6000,Li3.0Fe0.0Hf2.0Ti0.0P3O12,13.217646,
Li0.1500Fe0.0083Hf0.0917Ti0.0000P0.1500O0.6000,Li3.0Fe0.1667Hf1.8333Ti0.0P3O12,13.217646,