formula,original_formula,thermal_expansion,li ion conductivity
Li0.1500Ga0.1000Ti0.0000P0.1500O0.6000,Li3.0Ga0.3333Ga1.6667Ti0.0P3O12,13.755412,
Li0.1500Ga0.1000Ti0.0000P0.1500O0.6000,Li3.0Ga0.5Ga1.5Ti0.0P3O12,13.755412,
Li0.1500Ga0.1000Ti0.0000P0.1500O0.6000,Li3.0Ga0.6667Ga1.3333Ti0.0P3O12,13.755412,
Li0.1500Ga0.1000Ti0.0000P0.1500O0.6000,Li3.0Ga0.8333Ga1.1667Ti0.0P3O12,13.755412,
Li0.1500Ga0.1000Ti0.0000P0.1500O0.6000,Li3.0Ga1.0Ga1.0Ti0.0P3O12,13.755412,
Li0.1500Ga0.1000Ti0.0000P0.1500O0.6000,Li3.0Ga1.1667Ga0.8333Ti0.0P3O12,13.755412,
Li0.1500Ga0.1000Ti0.0000P0.1500O0.6000,Li3.0Ga1.3333Ga0.6667Ti0.0P3O12,13.755412,
Li0.1500Ga0.1000Ti0.0000P0.1500O0.6000,Li3.0Ga1.5Ga0.5Ti0.0P3O12,13.755412,
Li0.1500Ga0.1000Ti0.0000P0.1500O0.6000,Li3.0Ga1.6667Ga0.3333Ti0.0P3O12,13.755412,
Li0.1500Ga0.1000Ti0.0000P0.1500O0.6000,Li3.0Ga1.8333Ga0.1667Ti0.0P3O12,13.755412,
Li0.1500Ga0.1000Ti0.0000P0.1500O0.6000,Li3.0Ga2.0Ga0.0Ti0.0P3O12,13.755412,
Li0.0556Ga0.0000In0.0000Ti0.1111P0.1667O0.6667,Li1.0Ga0.0In0.0Ti2.0P3O12,7.7087817,
Li0.0642Ga0.0000In0.0092Ti0.1009P0.1651O0.6605,Li1.1667Ga0.0In0.1667Ti1.8333P3O12,7.7087817,
Li0.0642Ga0.0092In0.0000Ti0.1009P0.1651O0.6605,Li1.1667Ga0.1667In0.0Ti1.8333P3O12,7.7087817,
Li0.0727Ga0.0000In0.0182Ti0.0909P0.1636O0.6545,Li1.3333Ga0.0In0.3333Ti1.6667P3O12,8.017441,
Li0.0727Ga0.0182In0.0000Ti0.0909P0.1636O0.6545,Li1.3333Ga0.3333In0.0Ti1.6667P3O12,7.678768,
Li0.0811Ga0.0000In0.0270Ti0.0811P0.1622O0.6486,Li1.5Ga0.0In0.5Ti1.5P3O12,8.31198,
Li0.0811Ga0.0090In0.0180Ti0.0811P0.1622O0.6486,Li1.5Ga0.1667In0.3333Ti1.5P3O12,8.036197,0.20129677775324334
Li0.0811Ga0.0180In0.0090Ti0.0811P0.1622O0.6486,Li1.5Ga0.3333In0.1667Ti1.5P3O12,7.7207913,0.3164583941867989
Li0.0811Ga0.0270In0.0000Ti0.0811P0.1622O0.6486,Li1.5Ga0.5In0.0Ti1.5P3O12,7.7207913,
Li0.0893Ga0.0000In0.0357Ti0.0714P0.1607O0.6429,Li1.6667Ga0.0In0.6667Ti1.3333P3O12,8.690509,
Li0.0893Ga0.0089In0.0268Ti0.0714P0.1607O0.6429,Li1.6667Ga0.1667In0.5Ti1.3333P3O12,8.690509,0.1666921871668768
Li0.0893Ga0.0268In0.0089Ti0.0714P0.1607O0.6429,Li1.6667Ga0.5In0.1667Ti1.3333P3O12,8.099321,0.3282989131665706
Li0.0893Ga0.0357In0.0000Ti0.0714P0.1607O0.6429,Li1.6667Ga0.6667In0.0Ti1.3333P3O12,8.099321,
Li0.0973Ga0.0000In0.0442Ti0.0619P0.1593O0.6372,Li1.8333Ga0.0In0.8333Ti1.1667P3O12,8.690509,
Li0.0973Ga0.0177In0.0265Ti0.0619P0.1593O0.6372,Li1.8333Ga0.3333In0.5Ti1.1667P3O12,8.660495,0.18272848352531923
Li0.0973Ga0.0265In0.0177Ti0.0619P0.1593O0.6372,Li1.8333Ga0.5In0.3333Ti1.1667P3O12,8.38471,0.23581437515870518
Li0.0973Ga0.0442In0.0000Ti0.0619P0.1593O0.6372,Li1.8333Ga0.8333In0.0Ti1.1667P3O12,8.099321,
Li0.1053Ga0.0000In0.0526Ti0.0526P0.1579O0.6316,Li2.0Ga0.0In1.0Ti1.0P3O12,8.690509,
Li0.1053Ga0.0088In0.0439Ti0.0526P0.1579O0.6316,Li2.0Ga0.1667In0.8333Ti1.0P3O12,8.690509,0.13149330372094664
Li0.1053Ga0.0175In0.0351Ti0.0526P0.1579O0.6316,Li2.0Ga0.3333In0.6667Ti1.0P3O12,8.660495,0.1532707826305394
Li0.1053Ga0.0263In0.0263Ti0.0526P0.1579O0.6316,Li2.0Ga0.5In0.5Ti1.0P3O12,8.660495,0.18178586372007743
Li0.1053Ga0.0351In0.0175Ti0.0526P0.1579O0.6316,Li2.0Ga0.6667In0.3333Ti1.0P3O12,8.373245,0.2338635435944602
Li0.1053Ga0.0439In0.0088Ti0.0526P0.1579O0.6316,Li2.0Ga0.8333In0.1667Ti1.0P3O12,8.099321,0.3291272090196242
Li0.1053Ga0.0526In0.0000Ti0.0526P0.1579O0.6316,Li2.0Ga1.0In0.0Ti1.0P3O12,8.099321,
Li0.1130Ga0.0000In0.0609Ti0.0435P0.1565O0.6261,Li2.1667Ga0.0In1.1667Ti0.8333P3O12,8.690509,
Li0.1130Ga0.0087In0.0522Ti0.0435P0.1565O0.6261,Li2.1667Ga0.1667In1.0Ti0.8333P3O12,8.690509,0.015748835945270382
Li0.1130Ga0.0261In0.0348Ti0.0435P0.1565O0.6261,Li2.1667Ga0.5In0.6667Ti0.8333P3O12,8.660495,4.106573629605654e-06
Li0.1130Ga0.0348In0.0261Ti0.0435P0.1565O0.6261,Li2.1667Ga0.6667In0.5Ti0.8333P3O12,8.660495,6.837660474340148e-06
Li0.1130Ga0.0522In0.0087Ti0.0435P0.1565O0.6261,Li2.1667Ga1.0In0.1667Ti0.8333P3O12,8.099321,0.0015563839265216796
Li0.1130Ga0.0609In0.0000Ti0.0435P0.1565O0.6261,Li2.1667Ga1.1667In0.0Ti0.8333P3O12,6.7658024,
Li0.1207Ga0.0000In0.0690Ti0.0345P0.1552O0.6207,Li2.3333Ga0.0In1.3333Ti0.6667P3O12,8.690509,
Li0.1207Ga0.0172In0.0517Ti0.0345P0.1552O0.6207,Li2.3333Ga0.3333In1.0Ti0.6667P3O12,8.660495,0.013340603482601642
Li0.1207Ga0.0259In0.0431Ti0.0345P0.1552O0.6207,Li2.3333Ga0.5In0.8333Ti0.6667P3O12,8.660495,2.724845201268447e-06
Li0.1207Ga0.0431In0.0259Ti0.0345P0.1552O0.6207,Li2.3333Ga0.8333In0.5Ti0.6667P3O12,8.660495,6.888977923354802e-06
Li0.1207Ga0.0517In0.0172Ti0.0345P0.1552O0.6207,Li2.3333Ga1.0In0.3333Ti0.6667P3O12,8.373245,0.0011335072075810246
Li0.1207Ga0.0690In0.0000Ti0.0345P0.1552O0.6207,Li2.3333Ga1.3333In0.0Ti0.6667P3O12,6.7658024,
Li0.1282Ga0.0000In0.0769Ti0.0256P0.1538O0.6154,Li2.5Ga0.0In1.5Ti0.5P3O12,5.7995377,
Li0.1282Ga0.0085In0.0684Ti0.0256P0.1538O0.6154,Li2.5Ga0.1667In1.3333Ti0.5P3O12,8.690509,0.017311308145823708
Li0.1282Ga0.0171In0.0598Ti0.0256P0.1538O0.6154,Li2.5Ga0.3333In1.1667Ti0.5P3O12,8.660495,0.014889959757383496
Li0.1282Ga0.0256In0.0513Ti0.0256P0.1538O0.6154,Li2.5Ga0.5In1.0Ti0.5P3O12,8.660495,0.013052109090601099
Li0.1282Ga0.0342In0.0427Ti0.0256P0.1538O0.6154,Li2.5Ga0.6667In0.8333Ti0.5P3O12,8.660495,2.5853336209381877e-06
Li0.1282Ga0.0427In0.0342Ti0.0256P0.1538O0.6154,Li2.5Ga0.8333In0.6667Ti0.5P3O12,8.660495,3.981162622462712e-06
Li0.1282Ga0.0513In0.0256Ti0.0256P0.1538O0.6154,Li2.5Ga1.0In0.5Ti0.5P3O12,8.660495,0.0009619032874404154
Li0.1282Ga0.0598In0.0171Ti0.0256P0.1538O0.6154,Li2.5Ga1.1667In0.3333Ti0.5P3O12,7.078081,0.0013104492210055008
Li0.1282Ga0.0684In0.0085Ti0.0256P0.1538O0.6154,Li2.5Ga1.3333In0.1667Ti0.5P3O12,6.7658024,0.0018135067358268791
Li0.1282Ga0.0769In0.0000Ti0.0256P0.1538O0.6154,Li2.5Ga1.5In0.0Ti0.5P3O12,6.7658024,
Li0.1356Ga0.0000In0.0847Ti0.0169P0.1525O0.6102,Li2.6667Ga0.0In1.6667Ti0.3333P3O12,5.7995377,
Li0.1356Ga0.0085In0.0763Ti0.0169P0.1525O0.6102,Li2.6667Ga0.1667In1.5Ti0.3333P3O12,8.690509,0.02043065216835927
Li0.1356Ga0.0254In0.0593Ti0.0169P0.1525O0.6102,Li2.6667Ga0.5In1.1667Ti0.3333P3O12,8.660495,0.016585605493236816
Li0.1356Ga0.0339In0.0508Ti0.0169P0.1525O0.6102,Li2.6667Ga0.6667In1.0Ti0.3333P3O12,8.660495,0.015339999589810952
Li0.1356Ga0.0508In0.0339Ti0.0169P0.1525O0.6102,Li2.6667Ga1.0In0.6667Ti0.3333P3O12,8.660495,0.0010232463449164906
Li0.1356Ga0.0593In0.0254Ti0.0169P0.1525O0.6102,Li2.6667Ga1.1667In0.5Ti0.3333P3O12,7.365331,0.0012776585188982287
Li0.1356Ga0.0763In0.0085Ti0.0169P0.1525O0.6102,Li2.6667Ga1.5In0.1667Ti0.3333P3O12,6.7658024,0.0022783389351622137
Li0.1356Ga0.0847In0.0000Ti0.0169P0.1525O0.6102,Li2.6667Ga1.6667In0.0Ti0.3333P3O12,6.7658024,
Li0.1429Ga0.0000In0.0924Ti0.0084P0.1513O0.6050,Li2.8333Ga0.0In1.8333Ti0.1667P3O12,9.531069,
Li0.1429Ga0.0168In0.0756Ti0.0084P0.1513O0.6050,Li2.8333Ga0.3333In1.5Ti0.1667P3O12,12.392025,0.0263787467232904
Li0.1429Ga0.0252In0.0672Ti0.0084P0.1513O0.6050,Li2.8333Ga0.5In1.3333Ti0.1667P3O12,12.392025,0.023860096455905984
Li0.1429Ga0.0420In0.0504Ti0.0084P0.1513O0.6050,Li2.8333Ga0.8333In1.0Ti0.1667P3O12,12.392025,0.02154338496250268
Li0.1429Ga0.0504In0.0420Ti0.0084P0.1513O0.6050,Li2.8333Ga1.0In0.8333Ti0.1667P3O12,12.392025,0.0015344278239216586
Li0.1429Ga0.0672In0.0252Ti0.0084P0.1513O0.6050,Li2.8333Ga1.3333In0.5Ti0.1667P3O12,11.096866,0.002121900455351458
Li0.1429Ga0.0756In0.0168Ti0.0084P0.1513O0.6050,Li2.8333Ga1.5In0.3333Ti0.1667P3O12,10.809617,0.0026647607691046675
Li0.1429Ga0.0924In0.0000Ti0.0084P0.1513O0.6050,Li2.8333Ga1.8333In0.0Ti0.1667P3O12,10.497339,
Li0.1500Ga0.0000In0.1000Ti0.0000P0.1500O0.6000,Li3.0Ga0.0In2.0Ti0.0P3O12,12.877124,
Li0.1500Ga0.0083In0.0917Ti0.0000P0.1500O0.6000,Li3.0Ga0.1667In1.8333Ti0.0P3O12,12.877124,
Li0.1500Ga0.0167In0.0833Ti0.0000P0.1500O0.6000,Li3.0Ga0.3333In1.6667Ti0.0P3O12,12.84711,
Li0.1500Ga0.0250In0.0750Ti0.0000P0.1500O0.6000,Li3.0Ga0.5In1.5Ti0.0P3O12,15.738081,
Li0.1500Ga0.0333In0.0667Ti0.0000P0.1500O0.6000,Li3.0Ga0.6667In1.3333Ti0.0P3O12,15.738081,
Li0.1500Ga0.0417In0.0583Ti0.0000P0.1500O0.6000,Li3.0Ga0.8333In1.1667Ti0.0P3O12,15.738081,
Li0.1500Ga0.0500In0.0500Ti0.0000P0.1500O0.6000,Li3.0Ga1.0In1.0Ti0.0P3O12,15.738081,
Li0.1500Ga0.0583In0.0417Ti0.0000P0.1500O0.6000,Li3.0Ga1.1667In0.8333Ti0.0P3O12,15.738081,
Li0.1500Ga0.0667In0.0333Ti0.0000P0.1500O0.6000,Li3.0Ga1.3333In0.6667Ti0.0P3O12,14.442922,
Li0.1500Ga0.0750In0.0250Ti0.0000P0.1500O0.6000,Li3.0Ga1.5In0.5Ti0.0P3O12,14.442922,
Li0.1500Ga0.0833In0.0167Ti0.0000P0.1500O0.6000,Li3.0Ga1.6667In0.3333Ti0.0P3O12,14.155673,
Li0.1500Ga0.0917In0.0083Ti0.0000P0.1500O0.6000,Li3.0Ga1.8333In0.1667Ti0.0P3O12,13.843395,
Li0.1500Ga0.1000In0.0000Ti0.0000P0.1500O0.6000,Li3.0Ga2.0In0.0Ti0.0P3O12,13.755412,
Li0.0556Ga0.0000Mn0.0000Ti0.1111P0.1667O0.6667,Li1.0Ga0.0Mn0.0Ti2.0P3O12,7.7087817,
Li0.0642Ga0.0000Mn0.0092Ti0.1009P0.1651O0.6605,Li1.1667Ga0.0Mn0.1667Ti1.8333P3O12,7.7087817,
Li0.0642Ga0.0092Mn0.0000Ti0.1009P0.1651O0.6605,Li1.1667Ga0.1667Mn0.0Ti1.8333P3O12,7.7087817,
Li0.0727Ga0.0000Mn0.0182Ti0.0909P0.1636O0.6545,Li1.3333Ga0.0Mn0.3333Ti1.6667P3O12,7.7087817,
Li0.0727Ga0.0182Mn0.0000Ti0.0909P0.1636O0.6545,Li1.3333Ga0.3333Mn0.0Ti1.6667P3O12,7.678768,
Li0.0811Ga0.0000Mn0.0270Ti0.0811P0.1622O0.6486,Li1.5Ga0.0Mn0.5Ti1.5P3O12,7.750805,
Li0.0811Ga0.0090Mn0.0180Ti0.0811P0.1622O0.6486,Li1.5Ga0.1667Mn0.3333Ti1.5P3O12,7.750805,0.16975176204179418
Li0.0811Ga0.0180Mn0.0090Ti0.0811P0.1622O0.6486,Li1.5Ga0.3333Mn0.1667Ti1.5P3O12,7.7207913,0.2521584666982498
Li0.0811Ga0.0270Mn0.0000Ti0.0811P0.1622O0.6486,Li1.5Ga0.5Mn0.0Ti1.5P3O12,7.7207913,
Li0.0893Ga0.0000Mn0.0357Ti0.0714P0.1607O0.6429,Li1.6667Ga0.0Mn0.6667Ti1.3333P3O12,8.129335,
Li0.0893Ga0.0089Mn0.0268Ti0.0714P0.1607O0.6429,Li1.6667Ga0.1667Mn0.5Ti1.3333P3O12,8.129335,0.13895402811956847
Li0.0893Ga0.0268Mn0.0089Ti0.0714P0.1607O0.6429,Li1.6667Ga0.5Mn0.1667Ti1.3333P3O12,8.099321,0.2699460872841446
Li0.0893Ga0.0357Mn0.0000Ti0.0714P0.1607O0.6429,Li1.6667Ga0.6667Mn0.0Ti1.3333P3O12,8.099321,
Li0.0973Ga0.0000Mn0.0442Ti0.0619P0.1593O0.6372,Li1.8333Ga0.0Mn0.8333Ti1.1667P3O12,7.1790795,
Li0.0973Ga0.0177Mn0.0265Ti0.0619P0.1593O0.6372,Li1.8333Ga0.3333Mn0.5Ti1.1667P3O12,8.099321,0.14474712985596697
Li0.0973Ga0.0265Mn0.0177Ti0.0619P0.1593O0.6372,Li1.8333Ga0.5Mn0.3333Ti1.1667P3O12,8.099321,0.1838554626482161
Li0.0973Ga0.0442Mn0.0000Ti0.0619P0.1593O0.6372,Li1.8333Ga0.8333Mn0.0Ti1.1667P3O12,8.099321,
Li0.1053Ga0.0000Mn0.0526Ti0.0526P0.1579O0.6316,Li2.0Ga0.0Mn1.0Ti1.0P3O12,7.5443654,
Li0.1053Ga0.0088Mn0.0439Ti0.0526P0.1579O0.6316,Li2.0Ga0.1667Mn0.8333Ti1.0P3O12,7.1790795,0.09757571358008033
Li0.1053Ga0.0175Mn0.0351Ti0.0526P0.1579O0.6316,Li2.0Ga0.3333Mn0.6667Ti1.0P3O12,8.099321,0.1124160851318556
Li0.1053Ga0.0263Mn0.0263Ti0.0526P0.1579O0.6316,Li2.0Ga0.5Mn0.5Ti1.0P3O12,8.099321,0.13449450720903333
Li0.1053Ga0.0351Mn0.0175Ti0.0526P0.1579O0.6316,Li2.0Ga0.6667Mn0.3333Ti1.0P3O12,8.099321,0.17262614094642276
Li0.1053Ga0.0439Mn0.0088Ti0.0526P0.1579O0.6316,Li2.0Ga0.8333Mn0.1667Ti1.0P3O12,8.099321,0.2654506615394937
Li0.1053Ga0.0526Mn0.0000Ti0.0526P0.1579O0.6316,Li2.0Ga1.0Mn0.0Ti1.0P3O12,8.099321,
Li0.1130Ga0.0000Mn0.0609Ti0.0435P0.1565O0.6261,Li2.1667Ga0.0Mn1.1667Ti0.8333P3O12,7.5443654,
Li0.1130Ga0.0087Mn0.0522Ti0.0435P0.1565O0.6261,Li2.1667Ga0.1667Mn1.0Ti0.8333P3O12,7.5443654,0.06923175293412637
Li0.1130Ga0.0261Mn0.0348Ti0.0435P0.1565O0.6261,Li2.1667Ga0.5Mn0.6667Ti0.8333P3O12,8.099321,1.1472927864843494e-06
Li0.1130Ga0.0348Mn0.0261Ti0.0435P0.1565O0.6261,Li2.1667Ga0.6667Mn0.5Ti0.8333P3O12,8.099321,1.8165198584796772e-06
Li0.1130Ga0.0522Mn0.0087Ti0.0435P0.1565O0.6261,Li2.1667Ga1.0Mn0.1667Ti0.8333P3O12,8.099321,0.04408626653875024
Li0.1130Ga0.0609Mn0.0000Ti0.0435P0.1565O0.6261,Li2.1667Ga1.1667Mn0.0Ti0.8333P3O12,6.7658024,
Li0.1207Ga0.0000Mn0.0690Ti0.0345P0.1552O0.6207,Li2.3333Ga0.0Mn1.3333Ti0.6667P3O12,7.5443654,
Li0.1207Ga0.0172Mn0.0517Ti0.0345P0.1552O0.6207,Li2.3333Ga0.3333Mn1.0Ti0.6667P3O12,7.514352,0.07386873384272527
Li0.1207Ga0.0259Mn0.0431Ti0.0345P0.1552O0.6207,Li2.3333Ga0.5Mn0.8333Ti0.6667P3O12,7.149066,7.347254896889679e-07
Li0.1207Ga0.0431Mn0.0259Ti0.0345P0.1552O0.6207,Li2.3333Ga0.8333Mn0.5Ti0.6667P3O12,8.099321,1.7386892821614066e-06
Li0.1207Ga0.0517Mn0.0172Ti0.0345P0.1552O0.6207,Li2.3333Ga1.0Mn0.3333Ti0.6667P3O12,8.099321,0.08150232651151491
Li0.1207Ga0.0690Mn0.0000Ti0.0345P0.1552O0.6207,Li2.3333Ga1.3333Mn0.0Ti0.6667P3O12,6.7658024,
Li0.1282Ga0.0000Mn0.0769Ti0.0256P0.1538O0.6154,Li2.5Ga0.0Mn1.5Ti0.5P3O12,7.5443654,
Li0.1282Ga0.0085Mn0.0684Ti0.0256P0.1538O0.6154,Li2.5Ga0.1667Mn1.3333Ti0.5P3O12,7.5443654,0.07320087257471633
Li0.1282Ga0.0171Mn0.0598Ti0.0256P0.1538O0.6154,Li2.5Ga0.3333Mn1.1667Ti0.5P3O12,7.514352,0.08040984037861738
Li0.1282Ga0.0256Mn0.0513Ti0.0256P0.1538O0.6154,Li2.5Ga0.5Mn1.0Ti0.5P3O12,7.514352,0.08328596152971028
Li0.1282Ga0.0342Mn0.0427Ti0.0256P0.1538O0.6154,Li2.5Ga0.6667Mn0.8333Ti0.5P3O12,7.149066,6.901151269336704e-07
Li0.1282Ga0.0427Mn0.0342Ti0.0256P0.1538O0.6154,Li2.5Ga0.8333Mn0.6667Ti0.5P3O12,8.099321,1.0330810778963834e-06
Li0.1282Ga0.0513Mn0.0256Ti0.0256P0.1538O0.6154,Li2.5Ga1.0Mn0.5Ti0.5P3O12,8.099321,0.11402833842377098
Li0.1282Ga0.0598Mn0.0171Ti0.0256P0.1538O0.6154,Li2.5Ga1.1667Mn0.3333Ti0.5P3O12,6.7658024,0.09189686691002229
Li0.1282Ga0.0684Mn0.0085Ti0.0256P0.1538O0.6154,Li2.5Ga1.3333Mn0.1667Ti0.5P3O12,6.7658024,0.055431578758313844
Li0.1282Ga0.0769Mn0.0000Ti0.0256P0.1538O0.6154,Li2.5Ga1.5Mn0.0Ti0.5P3O12,6.7658024,
Li0.1356Ga0.0000Mn0.0847Ti0.0169P0.1525O0.6102,Li2.6667Ga0.0Mn1.6667Ti0.3333P3O12,7.480082,
Li0.1356Ga0.0085Mn0.0763Ti0.0169P0.1525O0.6102,Li2.6667Ga0.1667Mn1.5Ti0.3333P3O12,7.5443654,0.08418852758619776
Li0.1356Ga0.0254Mn0.0593Ti0.0169P0.1525O0.6102,Li2.6667Ga0.5Mn1.1667Ti0.3333P3O12,7.514352,0.09666145631645402
Li0.1356Ga0.0339Mn0.0508Ti0.0169P0.1525O0.6102,Li2.6667Ga0.6667Mn1.0Ti0.3333P3O12,7.514352,0.10027084804011686
Li0.1356Ga0.0508Mn0.0339Ti0.0169P0.1525O0.6102,Li2.6667Ga1.0Mn0.6667Ti0.3333P3O12,8.099321,0.14522820246672635
Li0.1356Ga0.0593Mn0.0254Ti0.0169P0.1525O0.6102,Li2.6667Ga1.1667Mn0.5Ti0.3333P3O12,6.7658024,0.12822870550557555
Li0.1356Ga0.0763Mn0.0085Ti0.0169P0.1525O0.6102,Li2.6667Ga1.5Mn0.1667Ti0.3333P3O12,6.7658024,0.06788290291132713
Li0.1356Ga0.0847Mn0.0000Ti0.0169P0.1525O0.6102,Li2.6667Ga1.6667Mn0.0Ti0.3333P3O12,6.7658024,
Li0.1429Ga0.0000Mn0.0924Ti0.0084P0.1513O0.6050,Li2.8333Ga0.0Mn1.8333Ti0.1667P3O12,9.358569,
Li0.1429Ga0.0168Mn0.0756Ti0.0084P0.1513O0.6050,Li2.8333Ga0.3333Mn1.5Ti0.1667P3O12,9.3928385,0.12620487354261012
Li0.1429Ga0.0252Mn0.0672Ti0.0084P0.1513O0.6050,Li2.8333Ga0.5Mn1.3333Ti0.1667P3O12,9.3928385,0.13312035036932018
Li0.1429Ga0.0420Mn0.0504Ti0.0084P0.1513O0.6050,Li2.8333Ga0.8333Mn1.0Ti0.1667P3O12,9.3928385,0.14846707211717938
Li0.1429Ga0.0504Mn0.0420Ti0.0084P0.1513O0.6050,Li2.8333Ga1.0Mn0.8333Ti0.1667P3O12,9.0275545,0.1956035934566767
Li0.1429Ga0.0672Mn0.0252Ti0.0084P0.1513O0.6050,Li2.8333Ga1.3333Mn0.5Ti0.1667P3O12,10.497339,0.15729559009203195
Li0.1429Ga0.0756Mn0.0168Ti0.0084P0.1513O0.6050,Li2.8333Ga1.5Mn0.3333Ti0.1667P3O12,10.497339,0.13059426936850504
Li0.1429Ga0.0924Mn0.0000Ti0.0084P0.1513O0.6050,Li2.8333Ga1.8333Mn0.0Ti0.1667P3O12,10.497339,
Li0.1500Ga0.0000Mn0.1000Ti0.0000P0.1500O0.6000,Li3.0Ga0.0Mn2.0Ti0.0P3O12,12.704627,
Li0.1500Ga0.0083Mn0.0917Ti0.0000P0.1500O0.6000,Li3.0Ga0.1667Mn1.8333Ti0.0P3O12,12.704627,
Li0.1500Ga0.0167Mn0.0833Ti0.0000P0.1500O0.6000,Li3.0Ga0.3333Mn1.6667Ti0.0P3O12,12.674613,
Li0.1500Ga0.0250Mn0.0750Ti0.0000P0.1500O0.6000,Li3.0Ga0.5Mn1.5Ti0.0P3O12,12.738896,
Li0.1500Ga0.0333Mn0.0667Ti0.0000P0.1500O0.6000,Li3.0Ga0.6667Mn1.3333Ti0.0P3O12,12.738896,
Li0.1500Ga0.0417Mn0.0583Ti0.0000P0.1500O0.6000,Li3.0Ga0.8333Mn1.1667Ti0.0P3O12,12.738896,
Li0.1500Ga0.0500Mn0.0500Ti0.0000P0.1500O0.6000,Li3.0Ga1.0Mn1.0Ti0.0P3O12,12.738896,
Li0.1500Ga0.0583Mn0.0417Ti0.0000P0.1500O0.6000,Li3.0Ga1.1667Mn0.8333Ti0.0P3O12,12.373611,
Li0.1500Ga0.0667Mn0.0333Ti0.0000P0.1500O0.6000,Li3.0Ga1.3333Mn0.6667Ti0.0P3O12,13.843395,
Li0.1500Ga0.0750Mn0.0250Ti0.0000P0.1500O0.6000,Li3.0Ga1.5Mn0.5Ti0.0P3O12,13.843395,
Li0.1500Ga0.0833Mn0.0167Ti0.0000P0.1500O0.6000,Li3.0Ga1.6667Mn0.3333Ti0.0P3O12,13.843395,
Li0.1500Ga0.0917Mn0.0083Ti0.0000P0.1500O0.6000,Li3.0Ga1.8333Mn0.1667Ti0.0P3O12,13.843395,
Li0.1500Ga0.1000Mn0.0000Ti0.0000P0.1500O0.6000,Li3.0Ga2.0Mn0.0Ti0.0P3O12,13.755412,
Li0.0556Ga0.0000Ni0.0000Ti0.1111P0.1667O0.6667,Li1.0Ga0.0Ni0.0Ti2.0P3O12,7.7087817,
Li0.0642Ga0.0000Ni0.0092Ti0.1009P0.1651O0.6605,Li1.1667Ga0.0Ni0.1667Ti1.8333P3O12,7.7087817,
Li0.0642Ga0.0092Ni0.0000Ti0.1009P0.1651O0.6605,Li1.1667Ga0.1667Ni0.0Ti1.8333P3O12,7.7087817,
Li0.0727Ga0.0000Ni0.0182Ti0.0909P0.1636O0.6545,Li1.3333Ga0.0Ni0.3333Ti1.6667P3O12,7.7087817,
Li0.0727Ga0.0182Ni0.0000Ti0.0909P0.1636O0.6545,Li1.3333Ga0.3333Ni0.0Ti1.6667P3O12,7.678768,
Li0.0811Ga0.0000Ni0.0270Ti0.0811P0.1622O0.6486,Li1.5Ga0.0Ni0.5Ti1.5P3O12,12.950637,
Li0.0811Ga0.0090Ni0.0180Ti0.0811P0.1622O0.6486,Li1.5Ga0.1667Ni0.3333Ti1.5P3O12,7.750805,0.12891795744376044
Li0.0811Ga0.0180Ni0.0090Ti0.0811P0.1622O0.6486,Li1.5Ga0.3333Ni0.1667Ti1.5P3O12,7.7207913,0.21343568143540181
Li0.0811Ga0.0270Ni0.0000Ti0.0811P0.1622O0.6486,Li1.5Ga0.5Ni0.0Ti1.5P3O12,7.7207913,
Li0.0893Ga0.0000Ni0.0357Ti0.0714P0.1607O0.6429,Li1.6667Ga0.0Ni0.6667Ti1.3333P3O12,13.329165,
Li0.0893Ga0.0089Ni0.0268Ti0.0714P0.1607O0.6429,Li1.6667Ga0.1667Ni0.5Ti1.3333P3O12,13.329165,0.10317383958793674
Li0.0893Ga0.0268Ni0.0089Ti0.0714P0.1607O0.6429,Li1.6667Ga0.5Ni0.1667Ti1.3333P3O12,8.099321,0.2310349802626365
Li0.0893Ga0.0357Ni0.0000Ti0.0714P0.1607O0.6429,Li1.6667Ga0.6667Ni0.0Ti1.3333P3O12,8.099321,
Li0.0973Ga0.0000Ni0.0442Ti0.0619P0.1593O0.6372,Li1.8333Ga0.0Ni0.8333Ti1.1667P3O12,13.373692,
Li0.0973Ga0.0177Ni0.0265Ti0.0619P0.1593O0.6372,Li1.8333Ga0.3333Ni0.5Ti1.1667P3O12,13.299151,0.11662592760325934
Li0.0973Ga0.0265Ni0.0177Ti0.0619P0.1593O0.6372,Li1.8333Ga0.5Ni0.3333Ti1.1667P3O12,8.099321,0.15358546148510643
Li0.0973Ga0.0442Ni0.0000Ti0.0619P0.1593O0.6372,Li1.8333Ga0.8333Ni0.0Ti1.1667P3O12,8.099321,
Li0.1053Ga0.0000Ni0.0526Ti0.0526P0.1579O0.6316,Li2.0Ga0.0Ni1.0Ti1.0P3O12,13.373692,
Li0.1053Ga0.0088Ni0.0439Ti0.0526P0.1579O0.6316,Li2.0Ga0.1667Ni0.8333Ti1.0P3O12,13.373692,0.07386889610785276
Li0.1053Ga0.0175Ni0.0351Ti0.0526P0.1579O0.6316,Li2.0Ga0.3333Ni0.6667Ti1.0P3O12,13.299151,0.09279030323881195
Li0.1053Ga0.0263Ni0.0263Ti0.0526P0.1579O0.6316,Li2.0Ga0.5Ni0.5Ti1.0P3O12,13.299151,0.11412002050007208
Li0.1053Ga0.0351Ni0.0175Ti0.0526P0.1579O0.6316,Li2.0Ga0.6667Ni0.3333Ti1.0P3O12,8.099321,0.1526250913888991
Li0.1053Ga0.0439Ni0.0088Ti0.0526P0.1579O0.6316,Li2.0Ga0.8333Ni0.1667Ti1.0P3O12,8.099321,0.24422330493169708
Li0.1053Ga0.0526Ni0.0000Ti0.0526P0.1579O0.6316,Li2.0Ga1.0Ni0.0Ti1.0P3O12,8.099321,
Li0.1130Ga0.0000Ni0.0609Ti0.0435P0.1565O0.6261,Li2.1667Ga0.0Ni1.1667Ti0.8333P3O12,13.441338,
Li0.1130Ga0.0087Ni0.0522Ti0.0435P0.1565O0.6261,Li2.1667Ga0.1667Ni1.0Ti0.8333P3O12,13.373692,0.079113844069791
Li0.1130Ga0.0261Ni0.0348Ti0.0435P0.1565O0.6261,Li2.1667Ga0.5Ni0.6667Ti0.8333P3O12,13.299151,2.21166775911688e-06
Li0.1130Ga0.0348Ni0.0261Ti0.0435P0.1565O0.6261,Li2.1667Ga0.6667Ni0.5Ti0.8333P3O12,13.299151,3.598186576228593e-06
Li0.1130Ga0.0522Ni0.0087Ti0.0435P0.1565O0.6261,Li2.1667Ga1.0Ni0.1667Ti0.8333P3O12,8.099321,0.122254008273972
Li0.1130Ga0.0609Ni0.0000Ti0.0435P0.1565O0.6261,Li2.1667Ga1.1667Ni0.0Ti0.8333P3O12,6.7658024,
Li0.1207Ga0.0000Ni0.0690Ti0.0345P0.1552O0.6207,Li2.3333Ga0.0Ni1.3333Ti0.6667P3O12,13.441338,
Li0.1207Ga0.0172Ni0.0517Ti0.0345P0.1552O0.6207,Li2.3333Ga0.3333Ni1.0Ti0.6667P3O12,13.3436775,0.09046627367431556
Li0.1207Ga0.0259Ni0.0431Ti0.0345P0.1552O0.6207,Li2.3333Ga0.5Ni0.8333Ti0.6667P3O12,13.3436775,1.394730319614935e-06
Li0.1207Ga0.0431Ni0.0259Ti0.0345P0.1552O0.6207,Li2.3333Ga0.8333Ni0.5Ti0.6667P3O12,13.299151,3.4301313042120746e-06
Li0.1207Ga0.0517Ni0.0172Ti0.0345P0.1552O0.6207,Li2.3333Ga1.0Ni0.3333Ti0.6667P3O12,8.099321,0.22091983236139615
Li0.1207Ga0.0690Ni0.0000Ti0.0345P0.1552O0.6207,Li2.3333Ga1.3333Ni0.0Ti0.6667P3O12,6.7658024,
Li0.1282Ga0.0000Ni0.0769Ti0.0256P0.1538O0.6154,Li2.5Ga0.0Ni1.5Ti0.5P3O12,13.441338,
Li0.1282Ga0.0085Ni0.0684Ti0.0256P0.1538O0.6154,Li2.5Ga0.1667Ni1.3333Ti0.5P3O12,13.441338,0.08255951252756019
Li0.1282Ga0.0171Ni0.0598Ti0.0256P0.1538O0.6154,Li2.5Ga0.3333Ni1.1667Ti0.5P3O12,13.3436775,0.09699464145725929
Li0.1282Ga0.0256Ni0.0513Ti0.0256P0.1538O0.6154,Li2.5Ga0.5Ni1.0Ti0.5P3O12,13.3436775,0.10750350276205892