formula,original_formula,thermal_expansion,li ion conductivity
Li0.1500Ga0.0083Bi0.0917Ti0.0000P0.1500O0.6000,Li3.0Ga0.1667Bi1.8333Ti0.0P3O12,15.206924,
Li0.1500Ga0.0167Bi0.0833Ti0.0000P0.1500O0.6000,Li3.0Ga0.3333Bi1.6667Ti0.0P3O12,15.17691,
Li0.1500Ga0.0250Bi0.0750Ti0.0000P0.1500O0.6000,Li3.0Ga0.5Bi1.5Ti0.0P3O12,15.17691,
Li0.1500Ga0.0333Bi0.0667Ti0.0000P0.1500O0.6000,Li3.0Ga0.6667Bi1.3333Ti0.0P3O12,15.17691,
Li0.1500Ga0.0417Bi0.0583Ti0.0000P0.1500O0.6000,Li3.0Ga0.8333Bi1.1667Ti0.0P3O12,15.17691,
Li0.1500Ga0.0500Bi0.0500Ti0.0000P0.1500O0.6000,Li3.0Ga1.0Bi1.0Ti0.0P3O12,15.17691,
Li0.1500Ga0.0583Bi0.0417Ti0.0000P0.1500O0.6000,Li3.0Ga1.1667Bi0.8333Ti0.0P3O12,15.17691,
Li0.1500Ga0.0667Bi0.0333Ti0.0000P0.1500O0.6000,Li3.0Ga1.3333Bi0.6667Ti0.0P3O12,13.843395,
Li0.1500Ga0.0750Bi0.0250Ti0.0000P0.1500O0.6000,Li3.0Ga1.5Bi0.5Ti0.0P3O12,13.843395,
Li0.1500Ga0.0833Bi0.0167Ti0.0000P0.1500O0.6000,Li3.0Ga1.6667Bi0.3333Ti0.0P3O12,13.843395,
Li0.1500Ga0.0917Bi0.0083Ti0.0000P0.1500O0.6000,Li3.0Ga1.8333Bi0.1667Ti0.0P3O12,13.843395,
Li0.1500Ga0.1000Bi0.0000Ti0.0000P0.1500O0.6000,Li3.0Ga2.0Bi0.0Ti0.0P3O12,13.755412,
Li0.0556In0.0000Al0.0000Ti0.1111P0.1667O0.6667,Li1.0In0.0Al0.0Ti2.0P3O12,7.7087817,
Li0.0642In0.0000Al0.0092Ti0.1009P0.1651O0.6605,Li1.1667In0.0Al0.1667Ti1.8333P3O12,7.7087817,
Li0.0642In0.0092Al0.0000Ti0.1009P0.1651O0.6605,Li1.1667In0.1667Al0.0Ti1.8333P3O12,7.7087817,
Li0.0727In0.0000Al0.0182Ti0.0909P0.1636O0.6545,Li1.3333In0.0Al0.3333Ti1.6667P3O12,9.113234,
Li0.0727In0.0182Al0.0000Ti0.0909P0.1636O0.6545,Li1.3333In0.3333Al0.0Ti1.6667P3O12,8.017441,
Li0.0811In0.0000Al0.0270Ti0.0811P0.1622O0.6486,Li1.5In0.0Al0.5Ti1.5P3O12,9.155256,
Li0.0811In0.0090Al0.0180Ti0.0811P0.1622O0.6486,Li1.5In0.1667Al0.3333Ti1.5P3O12,9.155256,0.05953242465610788
Li0.0811In0.0180Al0.0090Ti0.0811P0.1622O0.6486,Li1.5In0.3333Al0.1667Ti1.5P3O12,8.036197,0.08080021734731695
Li0.0811In0.0270Al0.0000Ti0.0811P0.1622O0.6486,Li1.5In0.5Al0.0Ti1.5P3O12,8.31198,
Li0.0893In0.0000Al0.0357Ti0.0714P0.1607O0.6429,Li1.6667In0.0Al0.6667Ti1.3333P3O12,9.533785,
Li0.0893In0.0089Al0.0268Ti0.0714P0.1607O0.6429,Li1.6667In0.1667Al0.5Ti1.3333P3O12,9.533785,0.05763836727048453
Li0.0893In0.0268Al0.0089Ti0.0714P0.1607O0.6429,Li1.6667In0.5Al0.1667Ti1.3333P3O12,8.690509,0.08907271723072462
Li0.0893In0.0357Al0.0000Ti0.0714P0.1607O0.6429,Li1.6667In0.6667Al0.0Ti1.3333P3O12,8.690509,
Li0.0973In0.0000Al0.0442Ti0.0619P0.1593O0.6372,Li1.8333In0.0Al0.8333Ti1.1667P3O12,9.533785,
Li0.0973In0.0177Al0.0265Ti0.0619P0.1593O0.6372,Li1.8333In0.3333Al0.5Ti1.1667P3O12,10.169471,0.07001267915635255
Li0.0973In0.0265Al0.0177Ti0.0619P0.1593O0.6372,Li1.8333In0.5Al0.3333Ti1.1667P3O12,10.445254,0.07947358020719889
Li0.0973In0.0442Al0.0000Ti0.0619P0.1593O0.6372,Li1.8333In0.8333Al0.0Ti1.1667P3O12,8.690509,
Li0.1053In0.0000Al0.0526Ti0.0526P0.1579O0.6316,Li2.0In0.0Al1.0Ti1.0P3O12,9.533785,
Li0.1053In0.0088Al0.0439Ti0.0526P0.1579O0.6316,Li2.0In0.1667Al0.8333Ti1.0P3O12,9.533785,0.057067099946672514
Li0.1053In0.0175Al0.0351Ti0.0526P0.1579O0.6316,Li2.0In0.3333Al0.6667Ti1.0P3O12,10.128677,0.0684052893068001
Li0.1053In0.0263Al0.0263Ti0.0526P0.1579O0.6316,Li2.0In0.5Al0.5Ti1.0P3O12,10.445254,0.07316358977390652
Li0.1053In0.0351Al0.0175Ti0.0526P0.1579O0.6316,Li2.0In0.6667Al0.3333Ti1.0P3O12,8.690509,0.08061386430766478
Li0.1053In0.0439Al0.0088Ti0.0526P0.1579O0.6316,Li2.0In0.8333Al0.1667Ti1.0P3O12,8.690509,0.09415669458691737
Li0.1053In0.0526Al0.0000Ti0.0526P0.1579O0.6316,Li2.0In1.0Al0.0Ti1.0P3O12,8.690509,
Li0.1130In0.0000Al0.0609Ti0.0435P0.1565O0.6261,Li2.1667In0.0Al1.1667Ti0.8333P3O12,9.286814,
Li0.1130In0.0087Al0.0522Ti0.0435P0.1565O0.6261,Li2.1667In0.1667Al1.0Ti0.8333P3O12,9.533785,0.0004150734568797659
Li0.1130In0.0261Al0.0348Ti0.0435P0.1565O0.6261,Li2.1667In0.5Al0.6667Ti0.8333P3O12,10.445254,0.00018587391438607088
Li0.1130In0.0348Al0.0261Ti0.0435P0.1565O0.6261,Li2.1667In0.6667Al0.5Ti0.8333P3O12,10.445254,0.00025492650153071696
Li0.1130In0.0522Al0.0087Ti0.0435P0.1565O0.6261,Li2.1667In1.0Al0.1667Ti0.8333P3O12,8.690509,0.0209711330205771
Li0.1130In0.0609Al0.0000Ti0.0435P0.1565O0.6261,Li2.1667In1.1667Al0.0Ti0.8333P3O12,8.690509,
Li0.1207In0.0000Al0.0690Ti0.0345P0.1552O0.6207,Li2.3333In0.0Al1.3333Ti0.6667P3O12,9.286814,
Li0.1207In0.0172Al0.0517Ti0.0345P0.1552O0.6207,Li2.3333In0.3333Al1.0Ti0.6667P3O12,10.128677,0.0003167893472207081
Li0.1207In0.0259Al0.0431Ti0.0345P0.1552O0.6207,Li2.3333In0.5Al0.8333Ti0.6667P3O12,10.445254,0.00012225078682747477
Li0.1207In0.0431Al0.0259Ti0.0345P0.1552O0.6207,Li2.3333In0.8333Al0.5Ti0.6667P3O12,10.445254,0.00021772187662240516
Li0.1207In0.0517Al0.0172Ti0.0345P0.1552O0.6207,Li2.3333In1.0Al0.3333Ti0.6667P3O12,8.690509,0.059940907246159636
Li0.1207In0.0690Al0.0000Ti0.0345P0.1552O0.6207,Li2.3333In1.3333Al0.0Ti0.6667P3O12,8.690509,
Li0.1282In0.0000Al0.0769Ti0.0256P0.1538O0.6154,Li2.5In0.0Al1.5Ti0.5P3O12,9.286814,
Li0.1282In0.0085Al0.0684Ti0.0256P0.1538O0.6154,Li2.5In0.1667Al1.3333Ti0.5P3O12,9.286814,0.0005021509330560497
Li0.1282In0.0171Al0.0598Ti0.0256P0.1538O0.6154,Li2.5In0.3333Al1.1667Ti0.5P3O12,10.007338,0.0003855007594827004
Li0.1282In0.0256Al0.0513Ti0.0256P0.1538O0.6154,Li2.5In0.5Al1.0Ti0.5P3O12,10.445254,0.0003311220178641793
Li0.1282In0.0342Al0.0427Ti0.0256P0.1538O0.6154,Li2.5In0.6667Al0.8333Ti0.5P3O12,10.445254,0.00010184312313894412
Li0.1282In0.0427Al0.0342Ti0.0256P0.1538O0.6154,Li2.5In0.8333Al0.6667Ti0.5P3O12,10.445254,0.00013339753976107334
Li0.1282In0.0513Al0.0256Ti0.0256P0.1538O0.6154,Li2.5In1.0Al0.5Ti0.5P3O12,10.445254,0.11296184732141089
Li0.1282In0.0598Al0.0171Ti0.0256P0.1538O0.6154,Li2.5In1.1667Al0.3333Ti0.5P3O12,8.690509,0.07051335358038564
Li0.1282In0.0684Al0.0085Ti0.0256P0.1538O0.6154,Li2.5In1.3333Al0.1667Ti0.5P3O12,8.690509,0.028228722405499236
Li0.1282In0.0769Al0.0000Ti0.0256P0.1538O0.6154,Li2.5In1.5Al0.0Ti0.5P3O12,5.7995377,
Li0.1356In0.0000Al0.0847Ti0.0169P0.1525O0.6102,Li2.6667In0.0Al1.6667Ti0.3333P3O12,9.286814,
Li0.1356In0.0085Al0.0763Ti0.0169P0.1525O0.6102,Li2.6667In0.1667Al1.5Ti0.3333P3O12,9.286814,0.0006848900864639564
Li0.1356In0.0254Al0.0593Ti0.0169P0.1525O0.6102,Li2.6667In0.5Al1.1667Ti0.3333P3O12,10.459963,0.0004970506453455953
Li0.1356In0.0339Al0.0508Ti0.0169P0.1525O0.6102,Li2.6667In0.6667Al1.0Ti0.3333P3O12,10.445254,0.00046351957216496224
Li0.1356In0.0508Al0.0339Ti0.0169P0.1525O0.6102,Li2.6667In1.0Al0.6667Ti0.3333P3O12,10.445254,0.1889299923562322
Li0.1356In0.0593Al0.0254Ti0.0169P0.1525O0.6102,Li2.6667In1.1667Al0.5Ti0.3333P3O12,10.445254,0.14432634950352288
Li0.1356In0.0763Al0.0085Ti0.0169P0.1525O0.6102,Li2.6667In1.5Al0.1667Ti0.3333P3O12,8.690509,0.03705621077697588
Li0.1356In0.0847Al0.0000Ti0.0169P0.1525O0.6102,Li2.6667In1.6667Al0.0Ti0.3333P3O12,5.7995377,
Li0.1429In0.0000Al0.0924Ti0.0084P0.1513O0.6050,Li2.8333In0.0Al1.8333Ti0.1667P3O12,13.018343,
Li0.1429In0.0168Al0.0756Ti0.0084P0.1513O0.6050,Li2.8333In0.3333Al1.5Ti0.1667P3O12,13.738865,0.0011965751710954456
Li0.1429In0.0252Al0.0672Ti0.0084P0.1513O0.6050,Li2.8333In0.5Al1.3333Ti0.1667P3O12,14.19149,0.001086073227123272
Li0.1429In0.0420Al0.0504Ti0.0084P0.1513O0.6050,Li2.8333In0.8333Al1.0Ti0.1667P3O12,14.176782,0.000992993338411308
Li0.1429In0.0504Al0.0420Ti0.0084P0.1513O0.6050,Li2.8333In1.0Al0.8333Ti0.1667P3O12,14.176782,0.3347118421293539
Li0.1429In0.0672Al0.0252Ti0.0084P0.1513O0.6050,Li2.8333In1.3333Al0.5Ti0.1667P3O12,14.176782,0.22619320329199144
Li0.1429In0.0756Al0.0168Ti0.0084P0.1513O0.6050,Li2.8333In1.5Al0.3333Ti0.1667P3O12,12.422039,0.14181508545567728
Li0.1429In0.0924Al0.0000Ti0.0084P0.1513O0.6050,Li2.8333In1.8333Al0.0Ti0.1667P3O12,9.531069,
Li0.1500In0.0000Al0.1000Ti0.0000P0.1500O0.6000,Li3.0In0.0Al2.0Ti0.0P3O12,15.867943,
Li0.1500In0.0083Al0.0917Ti0.0000P0.1500O0.6000,Li3.0In0.1667Al1.8333Ti0.0P3O12,15.070612,
Li0.1500In0.0167Al0.0833Ti0.0000P0.1500O0.6000,Li3.0In0.3333Al1.6667Ti0.0P3O12,15.791133,
Li0.1500In0.0250Al0.0750Ti0.0000P0.1500O0.6000,Li3.0In0.5Al1.5Ti0.0P3O12,16.243753,
Li0.1500In0.0333Al0.0667Ti0.0000P0.1500O0.6000,Li3.0In0.6667Al1.3333Ti0.0P3O12,16.243753,
Li0.1500In0.0417Al0.0583Ti0.0000P0.1500O0.6000,Li3.0In0.8333Al1.1667Ti0.0P3O12,16.229046,
Li0.1500In0.0500Al0.0500Ti0.0000P0.1500O0.6000,Li3.0In1.0Al1.0Ti0.0P3O12,16.229046,
Li0.1500In0.0583Al0.0417Ti0.0000P0.1500O0.6000,Li3.0In1.1667Al0.8333Ti0.0P3O12,16.229046,
Li0.1500In0.0667Al0.0333Ti0.0000P0.1500O0.6000,Li3.0In1.3333Al0.6667Ti0.0P3O12,16.229046,
Li0.1500In0.0750Al0.0250Ti0.0000P0.1500O0.6000,Li3.0In1.5Al0.5Ti0.0P3O12,16.229046,
Li0.1500In0.0833Al0.0167Ti0.0000P0.1500O0.6000,Li3.0In1.6667Al0.3333Ti0.0P3O12,12.877124,
Li0.1500In0.0917Al0.0083Ti0.0000P0.1500O0.6000,Li3.0In1.8333Al0.1667Ti0.0P3O12,12.877124,
Li0.1500In0.1000Al0.0000Ti0.0000P0.1500O0.6000,Li3.0In2.0Al0.0Ti0.0P3O12,12.877124,
Li0.0556In0.0000As0.0000Ti0.1111P0.1667O0.6667,Li1.0In0.0As0.0Ti2.0P3O12,7.7087817,
Li0.0642In0.0000As0.0092Ti0.1009P0.1651O0.6605,Li1.1667In0.0As0.1667Ti1.8333P3O12,7.7087817,
Li0.0642In0.0092As0.0000Ti0.1009P0.1651O0.6605,Li1.1667In0.1667As0.0Ti1.8333P3O12,7.7087817,
Li0.0727In0.0000As0.0182Ti0.0909P0.1636O0.6545,Li1.3333In0.0As0.3333Ti1.6667P3O12,7.7087817,
Li0.0727In0.0182As0.0000Ti0.0909P0.1636O0.6545,Li1.3333In0.3333As0.0Ti1.6667P3O12,8.017441,
Li0.0811In0.0000As0.0270Ti0.0811P0.1622O0.6486,Li1.5In0.0As0.5Ti1.5P3O12,7.750805,
Li0.0811In0.0090As0.0180Ti0.0811P0.1622O0.6486,Li1.5In0.1667As0.3333Ti1.5P3O12,7.750805,0.030176615203074224
Li0.0811In0.0180As0.0090Ti0.0811P0.1622O0.6486,Li1.5In0.3333As0.1667Ti1.5P3O12,8.036197,0.0334767338850919
Li0.0811In0.0270As0.0000Ti0.0811P0.1622O0.6486,Li1.5In0.5As0.0Ti1.5P3O12,8.31198,
Li0.0893In0.0000As0.0357Ti0.0714P0.1607O0.6429,Li1.6667In0.0As0.6667Ti1.3333P3O12,8.129335,
Li0.0893In0.0089As0.0268Ti0.0714P0.1607O0.6429,Li1.6667In0.1667As0.5Ti1.3333P3O12,8.129335,0.020660449736252206
Li0.0893In0.0268As0.0089Ti0.0714P0.1607O0.6429,Li1.6667In0.5As0.1667Ti1.3333P3O12,8.690509,0.023510330590528053
Li0.0893In0.0357As0.0000Ti0.0714P0.1607O0.6429,Li1.6667In0.6667As0.0Ti1.3333P3O12,8.690509,
Li0.0973In0.0000As0.0442Ti0.0619P0.1593O0.6372,Li1.8333In0.0As0.8333Ti1.1667P3O12,8.129335,
Li0.0973In0.0177As0.0265Ti0.0619P0.1593O0.6372,Li1.8333In0.3333As0.5Ti1.1667P3O12,8.414724,0.012572247382891873
Li0.0973In0.0265As0.0177Ti0.0619P0.1593O0.6372,Li1.8333In0.5As0.3333Ti1.1667P3O12,8.690509,0.012909161022175574
Li0.0973In0.0442As0.0000Ti0.0619P0.1593O0.6372,Li1.8333In0.8333As0.0Ti1.1667P3O12,8.690509,
Li0.1053In0.0000As0.0526Ti0.0526P0.1579O0.6316,Li2.0In0.0As1.0Ti1.0P3O12,8.129335,
Li0.1053In0.0088As0.0439Ti0.0526P0.1579O0.6316,Li2.0In0.1667As0.8333Ti1.0P3O12,8.129335,0.01079645865578901
Li0.1053In0.0175As0.0351Ti0.0526P0.1579O0.6316,Li2.0In0.3333As0.6667Ti1.0P3O12,8.403259,0.008083908403460648
Li0.1053In0.0263As0.0263Ti0.0526P0.1579O0.6316,Li2.0In0.5As0.5Ti1.0P3O12,8.690509,0.0073616766528554305
Li0.1053In0.0351As0.0175Ti0.0526P0.1579O0.6316,Li2.0In0.6667As0.3333Ti1.0P3O12,8.690509,0.008417762105836807
Li0.1053In0.0439As0.0088Ti0.0526P0.1579O0.6316,Li2.0In0.8333As0.1667Ti1.0P3O12,8.690509,0.013096149706535658
Li0.1053In0.0526As0.0000Ti0.0526P0.1579O0.6316,Li2.0In1.0As0.0Ti1.0P3O12,8.690509,
Li0.1130In0.0000As0.0609Ti0.0435P0.1565O0.6261,Li2.1667In0.0As1.1667Ti0.8333P3O12,8.129335,
Li0.1130In0.0087As0.0522Ti0.0435P0.1565O0.6261,Li2.1667In0.1667As1.0Ti0.8333P3O12,8.129335,0.000644013707214531
Li0.1130In0.0261As0.0348Ti0.0435P0.1565O0.6261,Li2.1667In0.5As0.6667Ti0.8333P3O12,8.690509,3.281167490868514e-08
Li0.1130In0.0348As0.0261Ti0.0435P0.1565O0.6261,Li2.1667In0.6667As0.5Ti0.8333P3O12,8.690509,4.370686534298248e-08
Li0.1130In0.0522As0.0087Ti0.0435P0.1565O0.6261,Li2.1667In1.0As0.1667Ti0.8333P3O12,8.690509,0.07372013740199468
Li0.1130In0.0609As0.0000Ti0.0435P0.1565O0.6261,Li2.1667In1.1667As0.0Ti0.8333P3O12,8.690509,
Li0.1207In0.0000As0.0690Ti0.0345P0.1552O0.6207,Li2.3333In0.0As1.3333Ti0.6667P3O12,8.129335,
Li0.1207In0.0172As0.0517Ti0.0345P0.1552O0.6207,Li2.3333In0.3333As1.0Ti0.6667P3O12,8.403259,0.0004623596592561439
Li0.1207In0.0259As0.0431Ti0.0345P0.1552O0.6207,Li2.3333In0.5As0.8333Ti0.6667P3O12,8.690509,2.004661501256822e-08
Li0.1207In0.0431As0.0259Ti0.0345P0.1552O0.6207,Li2.3333In0.8333As0.5Ti0.6667P3O12,8.690509,3.29808549877425e-08
Li0.1207In0.0517As0.0172Ti0.0345P0.1552O0.6207,Li2.3333In1.0As0.3333Ti0.6667P3O12,8.690509,0.06899704178988351
Li0.1207In0.0690As0.0000Ti0.0345P0.1552O0.6207,Li2.3333In1.3333As0.0Ti0.6667P3O12,8.690509,
Li0.1282In0.0000As0.0769Ti0.0256P0.1538O0.6154,Li2.5In0.0As1.5Ti0.5P3O12,8.129335,
Li0.1282In0.0085As0.0684Ti0.0256P0.1538O0.6154,Li2.5In0.1667As1.3333Ti0.5P3O12,8.129335,0.0008890807987494261
Li0.1282In0.0171As0.0598Ti0.0256P0.1538O0.6154,Li2.5In0.3333As1.1667Ti0.5P3O12,8.403259,0.0005887434263188661
Li0.1282In0.0256As0.0513Ti0.0256P0.1538O0.6154,Li2.5In0.5As1.0Ti0.5P3O12,8.690509,0.00040619726229232806
Li0.1282In0.0342As0.0427Ti0.0256P0.1538O0.6154,Li2.5In0.6667As0.8333Ti0.5P3O12,8.690509,1.4565177111993798e-08
Li0.1282In0.0427As0.0342Ti0.0256P0.1538O0.6154,Li2.5In0.8333As0.6667Ti0.5P3O12,8.690509,1.803182234824941e-08
Li0.1282In0.0513As0.0256Ti0.0256P0.1538O0.6154,Li2.5In1.0As0.5Ti0.5P3O12,8.690509,0.0620912298407067
Li0.1282In0.0598As0.0171Ti0.0256P0.1538O0.6154,Li2.5In1.1667As0.3333Ti0.5P3O12,8.690509,0.07959111723216439
Li0.1282In0.0684As0.0085Ti0.0256P0.1538O0.6154,Li2.5In1.3333As0.1667Ti0.5P3O12,8.690509,0.08624118632608477
Li0.1282In0.0769As0.0000Ti0.0256P0.1538O0.6154,Li2.5In1.5As0.0Ti0.5P3O12,5.7995377,
Li0.1356In0.0000As0.0847Ti0.0169P0.1525O0.6102,Li2.6667In0.0As1.6667Ti0.3333P3O12,8.129335,
Li0.1356In0.0085As0.0763Ti0.0169P0.1525O0.6102,Li2.6667In0.1667As1.5Ti0.3333P3O12,8.129335,0.0012356028205260414
Li0.1356In0.0254As0.0593Ti0.0169P0.1525O0.6102,Li2.6667In0.5As1.1667Ti0.3333P3O12,8.690509,0.0005922223305128017
Li0.1356In0.0339As0.0508Ti0.0169P0.1525O0.6102,Li2.6667In0.6667As1.0Ti0.3333P3O12,8.690509,0.00044392664328896645
Li0.1356In0.0508As0.0339Ti0.0169P0.1525O0.6102,Li2.6667In1.0As0.6667Ti0.3333P3O12,8.690509,0.0651459046050877
Li0.1356In0.0593As0.0254Ti0.0169P0.1525O0.6102,Li2.6667In1.1667As0.5Ti0.3333P3O12,8.690509,0.08295440545008244
Li0.1356In0.0763As0.0085Ti0.0169P0.1525O0.6102,Li2.6667In1.5As0.1667Ti0.3333P3O12,8.690509,0.10154773406342352
Li0.1356In0.0847As0.0000Ti0.0169P0.1525O0.6102,Li2.6667In1.6667As0.0Ti0.3333P3O12,5.7995377,
Li0.1429In0.0000As0.0924Ti0.0084P0.1513O0.6050,Li2.8333In0.0As1.8333Ti0.1667P3O12,11.860868,
Li0.1429In0.0168As0.0756Ti0.0084P0.1513O0.6050,Li2.8333In0.3333As1.5Ti0.1667P3O12,12.13479,0.0015394159960685362
Li0.1429In0.0252As0.0672Ti0.0084P0.1513O0.6050,Li2.8333In0.5As1.3333Ti0.1667P3O12,12.422039,0.0011358443759639048
Li0.1429In0.0420As0.0504Ti0.0084P0.1513O0.6050,Li2.8333In0.8333As1.0Ti0.1667P3O12,12.422039,0.0007140917966311412
Li0.1429In0.0504As0.0420Ti0.0084P0.1513O0.6050,Li2.8333In1.0As0.8333Ti0.1667P3O12,12.422039,0.09550366672243973
Li0.1429In0.0672As0.0252Ti0.0084P0.1513O0.6050,Li2.8333In1.3333As0.5Ti0.1667P3O12,12.422039,0.1193455710931153
Li0.1429In0.0756As0.0168Ti0.0084P0.1513O0.6050,Li2.8333In1.5As0.3333Ti0.1667P3O12,12.422039,0.13467034850301948
Li0.1429In0.0924As0.0000Ti0.0084P0.1513O0.6050,Li2.8333In1.8333As0.0Ti0.1667P3O12,9.531069,
Li0.1500In0.0000As0.1000Ti0.0000P0.1500O0.6000,Li3.0In0.0As2.0Ti0.0P3O12,15.206924,
Li0.1500In0.0083As0.0917Ti0.0000P0.1500O0.6000,Li3.0In0.1667As1.8333Ti0.0P3O12,15.206924,
Li0.1500In0.0167As0.0833Ti0.0000P0.1500O0.6000,Li3.0In0.3333As1.6667Ti0.0P3O12,15.480846,
Li0.1500In0.0250As0.0750Ti0.0000P0.1500O0.6000,Li3.0In0.5As1.5Ti0.0P3O12,15.768095,
Li0.1500In0.0333As0.0667Ti0.0000P0.1500O0.6000,Li3.0In0.6667As1.3333Ti0.0P3O12,15.768095,
Li0.1500In0.0417As0.0583Ti0.0000P0.1500O0.6000,Li3.0In0.8333As1.1667Ti0.0P3O12,15.768095,
Li0.1500In0.0500As0.0500Ti0.0000P0.1500O0.6000,Li3.0In1.0As1.0Ti0.0P3O12,15.768095,
Li0.1500In0.0583As0.0417Ti0.0000P0.1500O0.6000,Li3.0In1.1667As0.8333Ti0.0P3O12,15.768095,
Li0.1500In0.0667As0.0333Ti0.0000P0.1500O0.6000,Li3.0In1.3333As0.6667Ti0.0P3O12,15.768095,
Li0.1500In0.0750As0.0250Ti0.0000P0.1500O0.6000,Li3.0In1.5As0.5Ti0.0P3O12,15.768095,
Li0.1500In0.0833As0.0167Ti0.0000P0.1500O0.6000,Li3.0In1.6667As0.3333Ti0.0P3O12,12.877124,
Li0.1500In0.0917As0.0083Ti0.0000P0.1500O0.6000,Li3.0In1.8333As0.1667Ti0.0P3O12,12.877124,
Li0.1500In0.1000As0.0000Ti0.0000P0.1500O0.6000,Li3.0In2.0As0.0Ti0.0P3O12,12.877124,
Li0.0556In0.0000B0.0000Ti0.1111P0.1667O0.6667,Li1.0In0.0B0.0Ti2.0P3O12,7.7087817,
Li0.0642In0.0000B0.0092Ti0.1009P0.1651O0.6605,Li1.1667In0.0B0.1667Ti1.8333P3O12,7.7087817,
Li0.0642In0.0092B0.0000Ti0.1009P0.1651O0.6605,Li1.1667In0.1667B0.0Ti1.8333P3O12,7.7087817,
Li0.0727In0.0000B0.0182Ti0.0909P0.1636O0.6545,Li1.3333In0.0B0.3333Ti1.6667P3O12,7.7087817,
Li0.0727In0.0182B0.0000Ti0.0909P0.1636O0.6545,Li1.3333In0.3333B0.0Ti1.6667P3O12,8.017441,
Li0.0811In0.0000B0.0270Ti0.0811P0.1622O0.6486,Li1.5In0.0B0.5Ti1.5P3O12,7.750805,
Li0.0811In0.0090B0.0180Ti0.0811P0.1622O0.6486,Li1.5In0.1667B0.3333Ti1.5P3O12,7.750805,0.06315509067294107
Li0.0811In0.0180B0.0090Ti0.0811P0.1622O0.6486,Li1.5In0.3333B0.1667Ti1.5P3O12,8.036197,0.09357050082657362
Li0.0811In0.0270B0.0000Ti0.0811P0.1622O0.6486,Li1.5In0.5B0.0Ti1.5P3O12,8.31198,
Li0.0893In0.0000B0.0357Ti0.0714P0.1607O0.6429,Li1.6667In0.0B0.6667Ti1.3333P3O12,8.129335,
Li0.0893In0.0089B0.0268Ti0.0714P0.1607O0.6429,Li1.6667In0.1667B0.5Ti1.3333P3O12,8.129335,0.05926178055870828
Li0.0893In0.0268B0.0089Ti0.0714P0.1607O0.6429,Li1.6667In0.5B0.1667Ti1.3333P3O12,8.690509,0.11290945782799026
Li0.0893In0.0357B0.0000Ti0.0714P0.1607O0.6429,Li1.6667In0.6667B0.0Ti1.3333P3O12,8.690509,
Li0.0973In0.0000B0.0442Ti0.0619P0.1593O0.6372,Li1.8333In0.0B0.8333Ti1.1667P3O12,8.129335,
Li0.0973In0.0177B0.0265Ti0.0619P0.1593O0.6372,Li1.8333In0.3333B0.5Ti1.1667P3O12,8.414724,0.07783728300432852
Li0.0973In0.0265B0.0177Ti0.0619P0.1593O0.6372,Li1.8333In0.5B0.3333Ti1.1667P3O12,8.690509,0.09828288448087812
Li0.0973In0.0442B0.0000Ti0.0619P0.1593O0.6372,Li1.8333In0.8333B0.0Ti1.1667P3O12,8.690509,
Li0.1053In0.0000B0.0526Ti0.0526P0.1579O0.6316,Li2.0In0.0B1.0Ti1.0P3O12,8.129335,
Li0.1053In0.0088B0.0439Ti0.0526P0.1579O0.6316,Li2.0In0.1667B0.8333Ti1.0P3O12,8.129335,0.05659617919749118
Li0.1053In0.0175B0.0351Ti0.0526P0.1579O0.6316,Li2.0In0.3333B0.6667Ti1.0P3O12,8.403259,0.0748919993742812
Li0.1053In0.0263B0.0263Ti0.0526P0.1579O0.6316,Li2.0In0.5B0.5Ti1.0P3O12,8.690509,0.09191321406810242
Li0.1053In0.0351B0.0175Ti0.0526P0.1579O0.6316,Li2.0In0.6667B0.3333Ti1.0P3O12,8.690509,0.11321421431892091
Li0.1053In0.0439B0.0088Ti0.0526P0.1579O0.6316,Li2.0In0.8333B0.1667Ti1.0P3O12,8.690509,0.14333752821371692
Li0.1053In0.0526B0.0000Ti0.0526P0.1579O0.6316,Li2.0In1.0B0.0Ti1.0P3O12,8.690509,
Li0.1130In0.0000B0.0609Ti0.0435P0.1565O0.6261,Li2.1667In0.0B1.1667Ti0.8333P3O12,8.129335,
Li0.1130In0.0087B0.0522Ti0.0435P0.1565O0.6261,Li2.1667In0.1667B1.0Ti0.8333P3O12,8.129335,0.05562423523325047
Li0.1130In0.0261B0.0348Ti0.0435P0.1565O0.6261,Li2.1667In0.5B0.6667Ti0.8333P3O12,8.690509,0.030505211892829426
Li0.1130In0.0348B0.0261Ti0.0435P0.1565O0.6261,Li2.1667In0.6667B0.5Ti0.8333P3O12,8.690509,0.03422449463630085
Li0.1130In0.0522B0.0087Ti0.0435P0.1565O0.6261,Li2.1667In1.0B0.1667Ti0.8333P3O12,8.690509,0.48686354276933747
Li0.1130In0.0609B0.0000Ti0.0435P0.1565O0.6261,Li2.1667In1.1667B0.0Ti0.8333P3O12,8.690509,
Li0.1207In0.0000B0.0690Ti0.0345P0.1552O0.6207,Li2.3333In0.0B1.3333Ti0.6667P3O12,8.129335,
Li0.1207In0.0172B0.0517Ti0.0345P0.1552O0.6207,Li2.3333In0.3333B1.0Ti0.6667P3O12,8.403259,0.06226948644783401
Li0.1207In0.0259B0.0431Ti0.0345P0.1552O0.6207,Li2.3333In0.5B0.8333Ti0.6667P3O12,8.690509,0.02712904375424887
Li0.1207In0.0431B0.0259Ti0.0345P0.1552O0.6207,Li2.3333In0.8333B0.5Ti0.6667P3O12,8.690509,0.033872789247325466
Li0.1207In0.0517B0.0172Ti0.0345P0.1552O0.6207,Li2.3333In1.0B0.3333Ti0.6667P3O12,8.690509,0.9029965519841971
Li0.1207In0.0690B0.0000Ti0.0345P0.1552O0.6207,Li2.3333In1.3333B0.0Ti0.6667P3O12,8.690509,
Li0.1282In0.0000B0.0769Ti0.0256P0.1538O0.6154,Li2.5In0.0B1.5Ti0.5P3O12,8.129335,
Li0.1282In0.0085B0.0684Ti0.0256P0.1538O0.6154,Li2.5In0.1667B1.3333Ti0.5P3O12,8.129335,0.058570924080744685
Li0.1282In0.0171B0.0598Ti0.0256P0.1538O0.6154,Li2.5In0.3333B1.1667Ti0.5P3O12,8.403259,0.06493260208838114