formula,original_formula,thermal_expansion,li ion conductivity
Li0.1053B0.0000Hf0.0526Ti0.0526P0.1579O0.6316,Li2.0B0.0Hf1.0Ti1.0P3O12,8.1233835,
Li0.1053B0.0088Hf0.0439Ti0.0526P0.1579O0.6316,Li2.0B0.1667Hf0.8333Ti1.0P3O12,8.1233835,0.3644841506005461
Li0.1053B0.0175Hf0.0351Ti0.0526P0.1579O0.6316,Li2.0B0.3333Hf0.6667Ti1.0P3O12,8.1233835,0.6809576575488269
Li0.1053B0.0263Hf0.0263Ti0.0526P0.1579O0.6316,Li2.0B0.5Hf0.5Ti1.0P3O12,8.129335,1.0080334668836453
Li0.1053B0.0351Hf0.0175Ti0.0526P0.1579O0.6316,Li2.0B0.6667Hf0.3333Ti1.0P3O12,8.129335,1.3712214901128852
Li0.1053B0.0439Hf0.0088Ti0.0526P0.1579O0.6316,Li2.0B0.8333Hf0.1667Ti1.0P3O12,8.129335,1.8986399771587479
Li0.1053B0.0526Hf0.0000Ti0.0526P0.1579O0.6316,Li2.0B1.0Hf0.0Ti1.0P3O12,8.129335,
Li0.1130B0.0000Hf0.0609Ti0.0435P0.1565O0.6261,Li2.1667B0.0Hf1.1667Ti0.8333P3O12,7.980404,
Li0.1130B0.0087Hf0.0522Ti0.0435P0.1565O0.6261,Li2.1667B0.1667Hf1.0Ti0.8333P3O12,8.1233835,0.2936986464348124
Li0.1130B0.0261Hf0.0348Ti0.0435P0.1565O0.6261,Li2.1667B0.5Hf0.6667Ti0.8333P3O12,8.1233835,0.007057345771185911
Li0.1130B0.0348Hf0.0261Ti0.0435P0.1565O0.6261,Li2.1667B0.6667Hf0.5Ti0.8333P3O12,8.129335,0.00981910954099277
Li0.1130B0.0522Hf0.0087Ti0.0435P0.1565O0.6261,Li2.1667B1.0Hf0.1667Ti0.8333P3O12,8.129335,0.1517411006909358
Li0.1130B0.0609Hf0.0000Ti0.0435P0.1565O0.6261,Li2.1667B1.1667Hf0.0Ti0.8333P3O12,8.129335,
Li0.1207B0.0000Hf0.0690Ti0.0345P0.1552O0.6207,Li2.3333B0.0Hf1.3333Ti0.6667P3O12,7.980404,
Li0.1207B0.0172Hf0.0517Ti0.0345P0.1552O0.6207,Li2.3333B0.3333Hf1.0Ti0.6667P3O12,8.1233835,0.442651942108019
Li0.1207B0.0259Hf0.0431Ti0.0345P0.1552O0.6207,Li2.3333B0.5Hf0.8333Ti0.6667P3O12,8.1233835,0.005481148569262168
Li0.1207B0.0431Hf0.0259Ti0.0345P0.1552O0.6207,Li2.3333B0.8333Hf0.5Ti0.6667P3O12,8.129335,0.010168758937731478
Li0.1207B0.0517Hf0.0172Ti0.0345P0.1552O0.6207,Li2.3333B1.0Hf0.3333Ti0.6667P3O12,8.129335,0.1947191584823998
Li0.1207B0.0690Hf0.0000Ti0.0345P0.1552O0.6207,Li2.3333B1.3333Hf0.0Ti0.6667P3O12,8.129335,
Li0.1282B0.0000Hf0.0769Ti0.0256P0.1538O0.6154,Li2.5B0.0Hf1.5Ti0.5P3O12,7.980404,
Li0.1282B0.0085Hf0.0684Ti0.0256P0.1538O0.6154,Li2.5B0.1667Hf1.3333Ti0.5P3O12,7.980404,0.37944515163943343
Li0.1282B0.0171Hf0.0598Ti0.0256P0.1538O0.6154,Li2.5B0.3333Hf1.1667Ti0.5P3O12,7.980404,0.5078591868847329
Li0.1282B0.0256Hf0.0513Ti0.0256P0.1538O0.6154,Li2.5B0.5Hf1.0Ti0.5P3O12,8.1233835,0.5755997942173504
Li0.1282B0.0342Hf0.0427Ti0.0256P0.1538O0.6154,Li2.5B0.6667Hf0.8333Ti0.5P3O12,8.1233835,0.005868163895310911
Li0.1282B0.0427Hf0.0342Ti0.0256P0.1538O0.6154,Li2.5B0.8333Hf0.6667Ti0.5P3O12,8.1233835,0.007643666585537059
Li0.1282B0.0513Hf0.0256Ti0.0256P0.1538O0.6154,Li2.5B1.0Hf0.5Ti0.5P3O12,8.129335,0.22295636336608593
Li0.1282B0.0598Hf0.0171Ti0.0256P0.1538O0.6154,Li2.5B1.1667Hf0.3333Ti0.5P3O12,8.129335,0.19942896575753058
Li0.1282B0.0684Hf0.0085Ti0.0256P0.1538O0.6154,Li2.5B1.3333Hf0.1667Ti0.5P3O12,8.129335,0.1585648770010961
Li0.1282B0.0769Hf0.0000Ti0.0256P0.1538O0.6154,Li2.5B1.5Hf0.0Ti0.5P3O12,8.129335,
Li0.1356B0.0000Hf0.0847Ti0.0169P0.1525O0.6102,Li2.6667B0.0Hf1.6667Ti0.3333P3O12,7.980404,
Li0.1356B0.0085Hf0.0763Ti0.0169P0.1525O0.6102,Li2.6667B0.1667Hf1.5Ti0.3333P3O12,7.980404,0.46326746816859077
Li0.1356B0.0254Hf0.0593Ti0.0169P0.1525O0.6102,Li2.6667B0.5Hf1.1667Ti0.3333P3O12,7.980404,0.7018982134522143
Li0.1356B0.0339Hf0.0508Ti0.0169P0.1525O0.6102,Li2.6667B0.6667Hf1.0Ti0.3333P3O12,8.1233835,0.7781134959872418
Li0.1356B0.0508Hf0.0339Ti0.0169P0.1525O0.6102,Li2.6667B1.0Hf0.6667Ti0.3333P3O12,8.1233835,0.24643907272109114
Li0.1356B0.0593Hf0.0254Ti0.0169P0.1525O0.6102,Li2.6667B1.1667Hf0.5Ti0.3333P3O12,8.129335,0.22803172469126523
Li0.1356B0.0763Hf0.0085Ti0.0169P0.1525O0.6102,Li2.6667B1.5Hf0.1667Ti0.3333P3O12,8.129335,0.16425513329573146
Li0.1356B0.0847Hf0.0000Ti0.0169P0.1525O0.6102,Li2.6667B1.6667Hf0.0Ti0.3333P3O12,8.129335,
Li0.1429B0.0000Hf0.0924Ti0.0084P0.1513O0.6050,Li2.8333B0.0Hf1.8333Ti0.1667P3O12,9.871589,
Li0.1429B0.0168Hf0.0756Ti0.0084P0.1513O0.6050,Li2.8333B0.3333Hf1.5Ti0.1667P3O12,11.711937,0.8642541129319881
Li0.1429B0.0252Hf0.0672Ti0.0084P0.1513O0.6050,Li2.8333B0.5Hf1.3333Ti0.1667P3O12,11.711937,1.0201082267866812
Li0.1429B0.0420Hf0.0504Ti0.0084P0.1513O0.6050,Li2.8333B0.8333Hf1.0Ti0.1667P3O12,11.854917,1.2068554722570077
Li0.1429B0.0504Hf0.0420Ti0.0084P0.1513O0.6050,Li2.8333B1.0Hf0.8333Ti0.1667P3O12,11.854917,0.27485723925296973
Li0.1429B0.0672Hf0.0252Ti0.0084P0.1513O0.6050,Li2.8333B1.3333Hf0.5Ti0.1667P3O12,11.860868,0.2380671363726012
Li0.1429B0.0756Hf0.0168Ti0.0084P0.1513O0.6050,Li2.8333B1.5Hf0.3333Ti0.1667P3O12,11.860868,0.21215172433867022
Li0.1429B0.0924Hf0.0000Ti0.0084P0.1513O0.6050,Li2.8333B1.8333Hf0.0Ti0.1667P3O12,11.860868,
Li0.1500B0.0000Hf0.1000Ti0.0000P0.1500O0.6000,Li3.0B0.0Hf2.0Ti0.0P3O12,13.217646,
Li0.1500B0.0083Hf0.0917Ti0.0000P0.1500O0.6000,Li3.0B0.1667Hf1.8333Ti0.0P3O12,13.217646,
Li0.1500B0.0167Hf0.0833Ti0.0000P0.1500O0.6000,Li3.0B0.3333Hf1.6667Ti0.0P3O12,15.057993,
Li0.1500B0.0250Hf0.0750Ti0.0000P0.1500O0.6000,Li3.0B0.5Hf1.5Ti0.0P3O12,15.057993,
Li0.1500B0.0333Hf0.0667Ti0.0000P0.1500O0.6000,Li3.0B0.6667Hf1.3333Ti0.0P3O12,15.057993,
Li0.1500B0.0417Hf0.0583Ti0.0000P0.1500O0.6000,Li3.0B0.8333Hf1.1667Ti0.0P3O12,15.200973,
Li0.1500B0.0500Hf0.0500Ti0.0000P0.1500O0.6000,Li3.0B1.0Hf1.0Ti0.0P3O12,15.200973,
Li0.1500B0.0583Hf0.0417Ti0.0000P0.1500O0.6000,Li3.0B1.1667Hf0.8333Ti0.0P3O12,15.200973,
Li0.1500B0.0667Hf0.0333Ti0.0000P0.1500O0.6000,Li3.0B1.3333Hf0.6667Ti0.0P3O12,15.200973,
Li0.1500B0.0750Hf0.0250Ti0.0000P0.1500O0.6000,Li3.0B1.5Hf0.5Ti0.0P3O12,15.206924,
Li0.1500B0.0833Hf0.0167Ti0.0000P0.1500O0.6000,Li3.0B1.6667Hf0.3333Ti0.0P3O12,15.206924,
Li0.1500B0.0917Hf0.0083Ti0.0000P0.1500O0.6000,Li3.0B1.8333Hf0.1667Ti0.0P3O12,15.206924,
Li0.1500B0.1000Hf0.0000Ti0.0000P0.1500O0.6000,Li3.0B2.0Hf0.0Ti0.0P3O12,15.206924,
Li0.0556B0.0000Bi0.0000Ti0.1111P0.1667O0.6667,Li1.0B0.0Bi0.0Ti2.0P3O12,7.7087817,
Li0.0642B0.0000Bi0.0092Ti0.1009P0.1651O0.6605,Li1.1667B0.0Bi0.1667Ti1.8333P3O12,7.7087817,
Li0.0642B0.0092Bi0.0000Ti0.1009P0.1651O0.6605,Li1.1667B0.1667Bi0.0Ti1.8333P3O12,7.7087817,
Li0.0727B0.0000Bi0.0182Ti0.0909P0.1636O0.6545,Li1.3333B0.0Bi0.3333Ti1.6667P3O12,7.7087817,
Li0.0727B0.0182Bi0.0000Ti0.0909P0.1636O0.6545,Li1.3333B0.3333Bi0.0Ti1.6667P3O12,7.7087817,
Li0.0811B0.0000Bi0.0270Ti0.0811P0.1622O0.6486,Li1.5B0.0Bi0.5Ti1.5P3O12,7.750805,
Li0.0811B0.0090Bi0.0180Ti0.0811P0.1622O0.6486,Li1.5B0.1667Bi0.3333Ti1.5P3O12,7.750805,0.35123558300012747
Li0.0811B0.0180Bi0.0090Ti0.0811P0.1622O0.6486,Li1.5B0.3333Bi0.1667Ti1.5P3O12,7.750805,0.5546609804472575
Li0.0811B0.0270Bi0.0000Ti0.0811P0.1622O0.6486,Li1.5B0.5Bi0.0Ti1.5P3O12,7.750805,
Li0.0893B0.0000Bi0.0357Ti0.0714P0.1607O0.6429,Li1.6667B0.0Bi0.6667Ti1.3333P3O12,8.129335,
Li0.0893B0.0089Bi0.0268Ti0.0714P0.1607O0.6429,Li1.6667B0.1667Bi0.5Ti1.3333P3O12,8.129335,0.31375238658452226
Li0.0893B0.0268Bi0.0089Ti0.0714P0.1607O0.6429,Li1.6667B0.5Bi0.1667Ti1.3333P3O12,8.129335,0.6226401714099692
Li0.0893B0.0357Bi0.0000Ti0.0714P0.1607O0.6429,Li1.6667B0.6667Bi0.0Ti1.3333P3O12,8.129335,
Li0.0973B0.0000Bi0.0442Ti0.0619P0.1593O0.6372,Li1.8333B0.0Bi0.8333Ti1.1667P3O12,8.129335,
Li0.0973B0.0177Bi0.0265Ti0.0619P0.1593O0.6372,Li1.8333B0.3333Bi0.5Ti1.1667P3O12,8.129335,0.42583861728945394
Li0.0973B0.0265Bi0.0177Ti0.0619P0.1593O0.6372,Li1.8333B0.5Bi0.3333Ti1.1667P3O12,8.129335,0.5485932024335143
Li0.0973B0.0442Bi0.0000Ti0.0619P0.1593O0.6372,Li1.8333B0.8333Bi0.0Ti1.1667P3O12,8.129335,
Li0.1053B0.0000Bi0.0526Ti0.0526P0.1579O0.6316,Li2.0B0.0Bi1.0Ti1.0P3O12,8.129335,
Li0.1053B0.0088Bi0.0439Ti0.0526P0.1579O0.6316,Li2.0B0.1667Bi0.8333Ti1.0P3O12,8.129335,0.2590466617216121
Li0.1053B0.0175Bi0.0351Ti0.0526P0.1579O0.6316,Li2.0B0.3333Bi0.6667Ti1.0P3O12,8.129335,0.3838565105248323
Li0.1053B0.0263Bi0.0263Ti0.0526P0.1579O0.6316,Li2.0B0.5Bi0.5Ti1.0P3O12,8.129335,0.493704019443019
Li0.1053B0.0351Bi0.0175Ti0.0526P0.1579O0.6316,Li2.0B0.6667Bi0.3333Ti1.0P3O12,8.129335,0.5795632818432862
Li0.1053B0.0439Bi0.0088Ti0.0526P0.1579O0.6316,Li2.0B0.8333Bi0.1667Ti1.0P3O12,8.129335,0.6632160611353658
Li0.1053B0.0526Bi0.0000Ti0.0526P0.1579O0.6316,Li2.0B1.0Bi0.0Ti1.0P3O12,8.129335,
Li0.1130B0.0000Bi0.0609Ti0.0435P0.1565O0.6261,Li2.1667B0.0Bi1.1667Ti0.8333P3O12,8.129335,
Li0.1130B0.0087Bi0.0522Ti0.0435P0.1565O0.6261,Li2.1667B0.1667Bi1.0Ti0.8333P3O12,8.129335,0.6941850364919169
Li0.1130B0.0261Bi0.0348Ti0.0435P0.1565O0.6261,Li2.1667B0.5Bi0.6667Ti0.8333P3O12,8.129335,0.00011390989984309329
Li0.1130B0.0348Bi0.0261Ti0.0435P0.1565O0.6261,Li2.1667B0.6667Bi0.5Ti0.8333P3O12,8.129335,0.00016341364116384402
Li0.1130B0.0522Bi0.0087Ti0.0435P0.1565O0.6261,Li2.1667B1.0Bi0.1667Ti0.8333P3O12,8.129335,0.20472811699999643
Li0.1130B0.0609Bi0.0000Ti0.0435P0.1565O0.6261,Li2.1667B1.1667Bi0.0Ti0.8333P3O12,8.129335,
Li0.1207B0.0000Bi0.0690Ti0.0345P0.1552O0.6207,Li2.3333B0.0Bi1.3333Ti0.6667P3O12,8.129335,
Li0.1207B0.0172Bi0.0517Ti0.0345P0.1552O0.6207,Li2.3333B0.3333Bi1.0Ti0.6667P3O12,8.129335,0.9677449796129844
Li0.1207B0.0259Bi0.0431Ti0.0345P0.1552O0.6207,Li2.3333B0.5Bi0.8333Ti0.6667P3O12,8.129335,8.186267597252102e-05
Li0.1207B0.0431Bi0.0259Ti0.0345P0.1552O0.6207,Li2.3333B0.8333Bi0.5Ti0.6667P3O12,8.129335,0.00016061204876945218
Li0.1207B0.0517Bi0.0172Ti0.0345P0.1552O0.6207,Li2.3333B1.0Bi0.3333Ti0.6667P3O12,8.129335,0.27956613733266417
Li0.1207B0.0690Bi0.0000Ti0.0345P0.1552O0.6207,Li2.3333B1.3333Bi0.0Ti0.6667P3O12,8.129335,
Li0.1282B0.0000Bi0.0769Ti0.0256P0.1538O0.6154,Li2.5B0.0Bi1.5Ti0.5P3O12,8.129335,
Li0.1282B0.0085Bi0.0684Ti0.0256P0.1538O0.6154,Li2.5B0.1667Bi1.3333Ti0.5P3O12,8.129335,0.8041129715594577
Li0.1282B0.0171Bi0.0598Ti0.0256P0.1538O0.6154,Li2.5B0.3333Bi1.1667Ti0.5P3O12,8.129335,1.0585401054398809
Li0.1282B0.0256Bi0.0513Ti0.0256P0.1538O0.6154,Li2.5B0.5Bi1.0Ti0.5P3O12,8.129335,1.2152490717015898
Li0.1282B0.0342Bi0.0427Ti0.0256P0.1538O0.6154,Li2.5B0.6667Bi0.8333Ti0.5P3O12,8.129335,8.100256363480174e-05
Li0.1282B0.0427Bi0.0342Ti0.0256P0.1538O0.6154,Li2.5B0.8333Bi0.6667Ti0.5P3O12,8.129335,0.00011036137836810364
Li0.1282B0.0513Bi0.0256Ti0.0256P0.1538O0.6154,Li2.5B1.0Bi0.5Ti0.5P3O12,8.129335,0.3481316568322316
Li0.1282B0.0598Bi0.0171Ti0.0256P0.1538O0.6154,Li2.5B1.1667Bi0.3333Ti0.5P3O12,8.129335,0.2975458490743661
Li0.1282B0.0684Bi0.0085Ti0.0256P0.1538O0.6154,Li2.5B1.3333Bi0.1667Ti0.5P3O12,8.129335,0.22626175843392107
Li0.1282B0.0769Bi0.0000Ti0.0256P0.1538O0.6154,Li2.5B1.5Bi0.0Ti0.5P3O12,8.129335,
Li0.1356B0.0000Bi0.0847Ti0.0169P0.1525O0.6102,Li2.6667B0.0Bi1.6667Ti0.3333P3O12,8.129335,
Li0.1356B0.0085Bi0.0763Ti0.0169P0.1525O0.6102,Li2.6667B0.1667Bi1.5Ti0.3333P3O12,8.129335,0.9183987670201604
Li0.1356B0.0254Bi0.0593Ti0.0169P0.1525O0.6102,Li2.6667B0.5Bi1.1667Ti0.3333P3O12,8.129335,1.3731446621475945
Li0.1356B0.0339Bi0.0508Ti0.0169P0.1525O0.6102,Li2.6667B0.6667Bi1.0Ti0.3333P3O12,8.129335,1.494793803974004
Li0.1356B0.0508Bi0.0339Ti0.0169P0.1525O0.6102,Li2.6667B1.0Bi0.6667Ti0.3333P3O12,8.129335,0.418275651177855
Li0.1356B0.0593Bi0.0254Ti0.0169P0.1525O0.6102,Li2.6667B1.1667Bi0.5Ti0.3333P3O12,8.129335,0.3723206550257785
Li0.1356B0.0763Bi0.0085Ti0.0169P0.1525O0.6102,Li2.6667B1.5Bi0.1667Ti0.3333P3O12,8.129335,0.24099092297630284
Li0.1356B0.0847Bi0.0000Ti0.0169P0.1525O0.6102,Li2.6667B1.6667Bi0.0Ti0.3333P3O12,8.129335,
Li0.1429B0.0000Bi0.0924Ti0.0084P0.1513O0.6050,Li2.8333B0.0Bi1.8333Ti0.1667P3O12,11.860868,
Li0.1429B0.0168Bi0.0756Ti0.0084P0.1513O0.6050,Li2.8333B0.3333Bi1.5Ti0.1667P3O12,11.860868,1.4678285442853793
Li0.1429B0.0252Bi0.0672Ti0.0084P0.1513O0.6050,Li2.8333B0.5Bi1.3333Ti0.1667P3O12,11.860868,1.6991529623734265
Li0.1429B0.0420Bi0.0504Ti0.0084P0.1513O0.6050,Li2.8333B0.8333Bi1.0Ti0.1667P3O12,11.860868,1.9548926465966163
Li0.1429B0.0504Bi0.0420Ti0.0084P0.1513O0.6050,Li2.8333B1.0Bi0.8333Ti0.1667P3O12,11.860868,0.5140444576345766
Li0.1429B0.0672Bi0.0252Ti0.0084P0.1513O0.6050,Li2.8333B1.3333Bi0.5Ti0.1667P3O12,11.860868,0.4114717910675808
Li0.1429B0.0756Bi0.0168Ti0.0084P0.1513O0.6050,Li2.8333B1.5Bi0.3333Ti0.1667P3O12,11.860868,0.34973057103696203
Li0.1429B0.0924Bi0.0000Ti0.0084P0.1513O0.6050,Li2.8333B1.8333Bi0.0Ti0.1667P3O12,11.860868,
Li0.1500B0.0000Bi0.1000Ti0.0000P0.1500O0.6000,Li3.0B0.0Bi2.0Ti0.0P3O12,14.981435,
Li0.1500B0.0083Bi0.0917Ti0.0000P0.1500O0.6000,Li3.0B0.1667Bi1.8333Ti0.0P3O12,15.206924,
Li0.1500B0.0167Bi0.0833Ti0.0000P0.1500O0.6000,Li3.0B0.3333Bi1.6667Ti0.0P3O12,15.206924,
Li0.1500B0.0250Bi0.0750Ti0.0000P0.1500O0.6000,Li3.0B0.5Bi1.5Ti0.0P3O12,15.206924,
Li0.1500B0.0333Bi0.0667Ti0.0000P0.1500O0.6000,Li3.0B0.6667Bi1.3333Ti0.0P3O12,15.206924,
Li0.1500B0.0417Bi0.0583Ti0.0000P0.1500O0.6000,Li3.0B0.8333Bi1.1667Ti0.0P3O12,15.206924,
Li0.1500B0.0500Bi0.0500Ti0.0000P0.1500O0.6000,Li3.0B1.0Bi1.0Ti0.0P3O12,15.206924,
Li0.1500B0.0583Bi0.0417Ti0.0000P0.1500O0.6000,Li3.0B1.1667Bi0.8333Ti0.0P3O12,15.206924,
Li0.1500B0.0667Bi0.0333Ti0.0000P0.1500O0.6000,Li3.0B1.3333Bi0.6667Ti0.0P3O12,15.206924,
Li0.1500B0.0750Bi0.0250Ti0.0000P0.1500O0.6000,Li3.0B1.5Bi0.5Ti0.0P3O12,15.206924,
Li0.1500B0.0833Bi0.0167Ti0.0000P0.1500O0.6000,Li3.0B1.6667Bi0.3333Ti0.0P3O12,15.206924,
Li0.1500B0.0917Bi0.0083Ti0.0000P0.1500O0.6000,Li3.0B1.8333Bi0.1667Ti0.0P3O12,15.206924,
Li0.1500B0.1000Bi0.0000Ti0.0000P0.1500O0.6000,Li3.0B2.0Bi0.0Ti0.0P3O12,15.206924,
Li0.0556Co0.0000Al0.0000Ti0.1111P0.1667O0.6667,Li1.0Co0.0Al0.0Ti2.0P3O12,7.7087817,
Li0.0642Co0.0000Al0.0092Ti0.1009P0.1651O0.6605,Li1.1667Co0.0Al0.1667Ti1.8333P3O12,7.7087817,
Li0.0642Co0.0092Al0.0000Ti0.1009P0.1651O0.6605,Li1.1667Co0.1667Al0.0Ti1.8333P3O12,7.7087817,
Li0.0727Co0.0000Al0.0182Ti0.0909P0.1636O0.6545,Li1.3333Co0.0Al0.3333Ti1.6667P3O12,9.113234,
Li0.0727Co0.0182Al0.0000Ti0.0909P0.1636O0.6545,Li1.3333Co0.3333Al0.0Ti1.6667P3O12,7.7087817,
Li0.0811Co0.0000Al0.0270Ti0.0811P0.1622O0.6486,Li1.5Co0.0Al0.5Ti1.5P3O12,9.155256,
Li0.0811Co0.0090Al0.0180Ti0.0811P0.1622O0.6486,Li1.5Co0.1667Al0.3333Ti1.5P3O12,9.155256,0.7815967070756293
Li0.0811Co0.0180Al0.0090Ti0.0811P0.1622O0.6486,Li1.5Co0.3333Al0.1667Ti1.5P3O12,7.750805,1.279158305421961
Li0.0811Co0.0270Al0.0000Ti0.0811P0.1622O0.6486,Li1.5Co0.5Al0.0Ti1.5P3O12,7.750805,
Li0.0893Co0.0000Al0.0357Ti0.0714P0.1607O0.6429,Li1.6667Co0.0Al0.6667Ti1.3333P3O12,9.533785,
Li0.0893Co0.0089Al0.0268Ti0.0714P0.1607O0.6429,Li1.6667Co0.1667Al0.5Ti1.3333P3O12,9.533785,0.735050257394953
Li0.0893Co0.0268Al0.0089Ti0.0714P0.1607O0.6429,Li1.6667Co0.5Al0.1667Ti1.3333P3O12,8.129335,1.566938343440718
Li0.0893Co0.0357Al0.0000Ti0.0714P0.1607O0.6429,Li1.6667Co0.6667Al0.0Ti1.3333P3O12,8.129335,
Li0.0973Co0.0000Al0.0442Ti0.0619P0.1593O0.6372,Li1.8333Co0.0Al0.8333Ti1.1667P3O12,9.533785,
Li0.0973Co0.0177Al0.0265Ti0.0619P0.1593O0.6372,Li1.8333Co0.3333Al0.5Ti1.1667P3O12,9.533785,1.0633603682543735
Li0.0973Co0.0265Al0.0177Ti0.0619P0.1593O0.6372,Li1.8333Co0.5Al0.3333Ti1.1667P3O12,9.533785,1.3938477713005932
Li0.0973Co0.0442Al0.0000Ti0.0619P0.1593O0.6372,Li1.8333Co0.8333Al0.0Ti1.1667P3O12,8.147218,
Li0.1053Co0.0000Al0.0526Ti0.0526P0.1579O0.6316,Li2.0Co0.0Al1.0Ti1.0P3O12,9.533785,
Li0.1053Co0.0088Al0.0439Ti0.0526P0.1579O0.6316,Li2.0Co0.1667Al0.8333Ti1.0P3O12,9.533785,0.6889477148854395
Li0.1053Co0.0175Al0.0351Ti0.0526P0.1579O0.6316,Li2.0Co0.3333Al0.6667Ti1.0P3O12,9.533785,1.0347367502732006
Li0.1053Co0.0263Al0.0263Ti0.0526P0.1579O0.6316,Li2.0Co0.5Al0.5Ti1.0P3O12,9.533785,1.3336026935836076
Li0.1053Co0.0351Al0.0175Ti0.0526P0.1579O0.6316,Li2.0Co0.6667Al0.3333Ti1.0P3O12,8.129335,1.6489090552073231
Li0.1053Co0.0439Al0.0088Ti0.0526P0.1579O0.6316,Li2.0Co0.8333Al0.1667Ti1.0P3O12,8.147218,2.06190243733436
Li0.1053Co0.0526Al0.0000Ti0.0526P0.1579O0.6316,Li2.0Co1.0Al0.0Ti1.0P3O12,8.147218,
Li0.1130Co0.0000Al0.0609Ti0.0435P0.1565O0.6261,Li2.1667Co0.0Al1.1667Ti0.8333P3O12,9.286814,
Li0.1130Co0.0087Al0.0522Ti0.0435P0.1565O0.6261,Li2.1667Co0.1667Al1.0Ti0.8333P3O12,9.533785,0.37728948356731684
Li0.1130Co0.0261Al0.0348Ti0.0435P0.1565O0.6261,Li2.1667Co0.5Al0.6667Ti0.8333P3O12,9.533785,0.34236803323683423
Li0.1130Co0.0348Al0.0261Ti0.0435P0.1565O0.6261,Li2.1667Co0.6667Al0.5Ti0.8333P3O12,9.533785,0.4034723167090651
Li0.1130Co0.0522Al0.0087Ti0.0435P0.1565O0.6261,Li2.1667Co1.0Al0.1667Ti0.8333P3O12,8.147218,0.23315694863597558
Li0.1130Co0.0609Al0.0000Ti0.0435P0.1565O0.6261,Li2.1667Co1.1667Al0.0Ti0.8333P3O12,8.147218,
Li0.1207Co0.0000Al0.0690Ti0.0345P0.1552O0.6207,Li2.3333Co0.0Al1.3333Ti0.6667P3O12,9.286814,
Li0.1207Co0.0172Al0.0517Ti0.0345P0.1552O0.6207,Li2.3333Co0.3333Al1.0Ti0.6667P3O12,9.533785,0.6808821470720695
Li0.1207Co0.0259Al0.0431Ti0.0345P0.1552O0.6207,Li2.3333Co0.5Al0.8333Ti0.6667P3O12,9.533785,0.32467768146976433
Li0.1207Co0.0431Al0.0259Ti0.0345P0.1552O0.6207,Li2.3333Co0.8333Al0.5Ti0.6667P3O12,9.551666,0.4187572209689896
Li0.1207Co0.0517Al0.0172Ti0.0345P0.1552O0.6207,Li2.3333Co1.0Al0.3333Ti0.6667P3O12,8.147218,0.6097866975051924
Li0.1207Co0.0690Al0.0000Ti0.0345P0.1552O0.6207,Li2.3333Co1.3333Al0.0Ti0.6667P3O12,8.147218,
Li0.1282Co0.0000Al0.0769Ti0.0256P0.1538O0.6154,Li2.5Co0.0Al1.5Ti0.5P3O12,9.286814,
Li0.1282Co0.0085Al0.0684Ti0.0256P0.1538O0.6154,Li2.5Co0.1667Al1.3333Ti0.5P3O12,9.286814,0.43284724534815044
Li0.1282Co0.0171Al0.0598Ti0.0256P0.1538O0.6154,Li2.5Co0.3333Al1.1667Ti0.5P3O12,9.286814,0.7242210587673017
Li0.1282Co0.0256Al0.0513Ti0.0256P0.1538O0.6154,Li2.5Co0.5Al1.0Ti0.5P3O12,9.533785,0.9136370566074093
Li0.1282Co0.0342Al0.0427Ti0.0256P0.1538O0.6154,Li2.5Co0.6667Al0.8333Ti0.5P3O12,9.533785,0.3433211511204623
Li0.1282Co0.0427Al0.0342Ti0.0256P0.1538O0.6154,Li2.5Co0.8333Al0.6667Ti0.5P3O12,9.551666,0.3739842623347545
Li0.1282Co0.0513Al0.0256Ti0.0256P0.1538O0.6154,Li2.5Co1.0Al0.5Ti0.5P3O12,9.551666,0.9985802516254874
Li0.1282Co0.0598Al0.0171Ti0.0256P0.1538O0.6154,Li2.5Co1.1667Al0.3333Ti0.5P3O12,8.147218,0.6844187566970681
Li0.1282Co0.0684Al0.0085Ti0.0256P0.1538O0.6154,Li2.5Co1.3333Al0.1667Ti0.5P3O12,8.147218,0.30416666778105983
Li0.1282Co0.0769Al0.0000Ti0.0256P0.1538O0.6154,Li2.5Co1.5Al0.0Ti0.5P3O12,8.147218,
Li0.1356Co0.0000Al0.0847Ti0.0169P0.1525O0.6102,Li2.6667Co0.0Al1.6667Ti0.3333P3O12,9.286814,
Li0.1356Co0.0085Al0.0763Ti0.0169P0.1525O0.6102,Li2.6667Co0.1667Al1.5Ti0.3333P3O12,9.286814,0.49870398206672856
Li0.1356Co0.0254Al0.0593Ti0.0169P0.1525O0.6102,Li2.6667Co0.5Al1.1667Ti0.3333P3O12,9.286814,1.0065868395772928
Li0.1356Co0.0339Al0.0508Ti0.0169P0.1525O0.6102,Li2.6667Co0.6667Al1.0Ti0.3333P3O12,9.533785,1.1597284921025903
Li0.1356Co0.0508Al0.0339Ti0.0169P0.1525O0.6102,Li2.6667Co1.0Al0.6667Ti0.3333P3O12,9.551666,1.4610986080042774
Li0.1356Co0.0593Al0.0254Ti0.0169P0.1525O0.6102,Li2.6667Co1.1667Al0.5Ti0.3333P3O12,9.551666,1.1777762785528565
Li0.1356Co0.0763Al0.0085Ti0.0169P0.1525O0.6102,Li2.6667Co1.5Al0.1667Ti0.3333P3O12,8.147218,0.3758785068642544
Li0.1356Co0.0847Al0.0000Ti0.0169P0.1525O0.6102,Li2.6667Co1.6667Al0.0Ti0.3333P3O12,8.147218,
Li0.1429Co0.0000Al0.0924Ti0.0084P0.1513O0.6050,Li2.8333Co0.0Al1.8333Ti0.1667P3O12,13.018343,
Li0.1429Co0.0168Al0.0756Ti0.0084P0.1513O0.6050,Li2.8333Co0.3333Al1.5Ti0.1667P3O12,13.018343,0.9895774289307763
Li0.1429Co0.0252Al0.0672Ti0.0084P0.1513O0.6050,Li2.8333Co0.5Al1.3333Ti0.1667P3O12,13.018343,1.2163216498174414
Li0.1429Co0.0420Al0.0504Ti0.0084P0.1513O0.6050,Li2.8333Co0.8333Al1.0Ti0.1667P3O12,13.2831955,1.4641168641512996
Li0.1429Co0.0504Al0.0420Ti0.0084P0.1513O0.6050,Li2.8333Co1.0Al0.8333Ti0.1667P3O12,13.2831955,2.1922155550619555
Li0.1429Co0.0672Al0.0252Ti0.0084P0.1513O0.6050,Li2.8333Co1.3333Al0.5Ti0.1667P3O12,13.2831955,1.5643366310033442
Li0.1429Co0.0756Al0.0168Ti0.0084P0.1513O0.6050,Li2.8333Co1.5Al0.3333Ti0.1667P3O12,11.87875,1.104535075915953
Li0.1429Co0.0924Al0.0000Ti0.0084P0.1513O0.6050,Li2.8333Co1.8333Al0.0Ti0.1667P3O12,11.87875,
Li0.1500Co0.0000Al0.1000Ti0.0000P0.1500O0.6000,Li3.0Co0.0Al2.0Ti0.0P3O12,15.867943,
Li0.1500Co0.0083Al0.0917Ti0.0000P0.1500O0.6000,Li3.0Co0.1667Al1.8333Ti0.0P3O12,15.070612,
Li0.1500Co0.0167Al0.0833Ti0.0000P0.1500O0.6000,Li3.0Co0.3333Al1.6667Ti0.0P3O12,15.070612,
Li0.1500Co0.0250Al0.0750Ti0.0000P0.1500O0.6000,Li3.0Co0.5Al1.5Ti0.0P3O12,15.070612,
Li0.1500Co0.0333Al0.0667Ti0.0000P0.1500O0.6000,Li3.0Co0.6667Al1.3333Ti0.0P3O12,15.070612,
Li0.1500Co0.0417Al0.0583Ti0.0000P0.1500O0.6000,Li3.0Co0.8333Al1.1667Ti0.0P3O12,15.335464,
Li0.1500Co0.0500Al0.0500Ti0.0000P0.1500O0.6000,Li3.0Co1.0Al1.0Ti0.0P3O12,15.335464,