formula,original_formula,thermal_expansion,li ion conductivity
Li0.0893As0.0357Ni0.0000Ti0.0714P0.1607O0.6429,Li1.6667As0.6667Ni0.0Ti1.3333P3O12,8.129335,
Li0.0973As0.0000Ni0.0442Ti0.0619P0.1593O0.6372,Li1.8333As0.0Ni0.8333Ti1.1667P3O12,13.373692,
Li0.0973As0.0177Ni0.0265Ti0.0619P0.1593O0.6372,Li1.8333As0.3333Ni0.5Ti1.1667P3O12,13.329165,0.5949246790732862
Li0.0973As0.0265Ni0.0177Ti0.0619P0.1593O0.6372,Li1.8333As0.5Ni0.3333Ti1.1667P3O12,8.129335,0.6765948737286424
Li0.0973As0.0442Ni0.0000Ti0.0619P0.1593O0.6372,Li1.8333As0.8333Ni0.0Ti1.1667P3O12,8.129335,
Li0.1053As0.0000Ni0.0526Ti0.0526P0.1579O0.6316,Li2.0As0.0Ni1.0Ti1.0P3O12,13.373692,
Li0.1053As0.0088Ni0.0439Ti0.0526P0.1579O0.6316,Li2.0As0.1667Ni0.8333Ti1.0P3O12,13.373692,0.42494862662609695
Li0.1053As0.0175Ni0.0351Ti0.0526P0.1579O0.6316,Li2.0As0.3333Ni0.6667Ti1.0P3O12,13.329165,0.5457515552383542
Li0.1053As0.0263Ni0.0263Ti0.0526P0.1579O0.6316,Li2.0As0.5Ni0.5Ti1.0P3O12,13.329165,0.6031195079655398
Li0.1053As0.0351Ni0.0175Ti0.0526P0.1579O0.6316,Li2.0As0.6667Ni0.3333Ti1.0P3O12,8.129335,0.6660423201474323
Li0.1053As0.0439Ni0.0088Ti0.0526P0.1579O0.6316,Li2.0As0.8333Ni0.1667Ti1.0P3O12,8.129335,0.8128583437591695
Li0.1053As0.0526Ni0.0000Ti0.0526P0.1579O0.6316,Li2.0As1.0Ni0.0Ti1.0P3O12,8.129335,
Li0.1130As0.0000Ni0.0609Ti0.0435P0.1565O0.6261,Li2.1667As0.0Ni1.1667Ti0.8333P3O12,13.441338,
Li0.1130As0.0087Ni0.0522Ti0.0435P0.1565O0.6261,Li2.1667As0.1667Ni1.0Ti0.8333P3O12,13.373692,0.5857758029354795
Li0.1130As0.0261Ni0.0348Ti0.0435P0.1565O0.6261,Li2.1667As0.5Ni0.6667Ti0.8333P3O12,13.329165,0.0010034116729910557
Li0.1130As0.0348Ni0.0261Ti0.0435P0.1565O0.6261,Li2.1667As0.6667Ni0.5Ti0.8333P3O12,13.329165,0.0010683820382335434
Li0.1130As0.0522Ni0.0087Ti0.0435P0.1565O0.6261,Li2.1667As1.0Ni0.1667Ti0.8333P3O12,8.129335,0.09031859394653222
Li0.1130As0.0609Ni0.0000Ti0.0435P0.1565O0.6261,Li2.1667As1.1667Ni0.0Ti0.8333P3O12,8.129335,
Li0.1207As0.0000Ni0.0690Ti0.0345P0.1552O0.6207,Li2.3333As0.0Ni1.3333Ti0.6667P3O12,13.441338,
Li0.1207As0.0172Ni0.0517Ti0.0345P0.1552O0.6207,Li2.3333As0.3333Ni1.0Ti0.6667P3O12,13.373692,0.788636820690604
Li0.1207As0.0259Ni0.0431Ti0.0345P0.1552O0.6207,Li2.3333As0.5Ni0.8333Ti0.6667P3O12,13.373692,0.0006600027513701123
Li0.1207As0.0431Ni0.0259Ti0.0345P0.1552O0.6207,Li2.3333As0.8333Ni0.5Ti0.6667P3O12,13.329165,0.0007572346858215335
Li0.1207As0.0517Ni0.0172Ti0.0345P0.1552O0.6207,Li2.3333As1.0Ni0.3333Ti0.6667P3O12,8.129335,0.1643498420367756
Li0.1207As0.0690Ni0.0000Ti0.0345P0.1552O0.6207,Li2.3333As1.3333Ni0.0Ti0.6667P3O12,8.129335,
Li0.1282As0.0000Ni0.0769Ti0.0256P0.1538O0.6154,Li2.5As0.0Ni1.5Ti0.5P3O12,13.441338,
Li0.1282As0.0085Ni0.0684Ti0.0256P0.1538O0.6154,Li2.5As0.1667Ni1.3333Ti0.5P3O12,13.441338,0.6495581212373196
Li0.1282As0.0171Ni0.0598Ti0.0256P0.1538O0.6154,Li2.5As0.3333Ni1.1667Ti0.5P3O12,13.373692,0.8334290516273444
Li0.1282As0.0256Ni0.0513Ti0.0256P0.1538O0.6154,Li2.5As0.5Ni1.0Ti0.5P3O12,13.373692,0.897834494842291
Li0.1282As0.0342Ni0.0427Ti0.0256P0.1538O0.6154,Li2.5As0.6667Ni0.8333Ti0.5P3O12,13.373692,0.0004216483537093164
Li0.1282As0.0427Ni0.0342Ti0.0256P0.1538O0.6154,Li2.5As0.8333Ni0.6667Ti0.5P3O12,13.329165,0.0004522179782071981
Li0.1282As0.0513Ni0.0256Ti0.0256P0.1538O0.6154,Li2.5As1.0Ni0.5Ti0.5P3O12,13.329165,0.23013217338832068
Li0.1282As0.0598Ni0.0171Ti0.0256P0.1538O0.6154,Li2.5As1.1667Ni0.3333Ti0.5P3O12,8.129335,0.17646189307225632
Li0.1282As0.0684Ni0.0085Ti0.0256P0.1538O0.6154,Li2.5As1.3333Ni0.1667Ti0.5P3O12,8.129335,0.10439624165205086
Li0.1282As0.0769Ni0.0000Ti0.0256P0.1538O0.6154,Li2.5As1.5Ni0.0Ti0.5P3O12,8.129335,
Li0.1356As0.0000Ni0.0847Ti0.0169P0.1525O0.6102,Li2.6667As0.0Ni1.6667Ti0.3333P3O12,13.38264,
Li0.1356As0.0085Ni0.0763Ti0.0169P0.1525O0.6102,Li2.6667As0.1667Ni1.5Ti0.3333P3O12,13.441338,0.7193295012221199
Li0.1356As0.0254Ni0.0593Ti0.0169P0.1525O0.6102,Li2.6667As0.5Ni1.1667Ti0.3333P3O12,13.373692,1.0043656497151545
Li0.1356As0.0339Ni0.0508Ti0.0169P0.1525O0.6102,Li2.6667As0.6667Ni1.0Ti0.3333P3O12,13.373692,1.016575603533367
Li0.1356As0.0508Ni0.0339Ti0.0169P0.1525O0.6102,Li2.6667As1.0Ni0.6667Ti0.3333P3O12,13.329165,0.29376766276683136
Li0.1356As0.0593Ni0.0254Ti0.0169P0.1525O0.6102,Li2.6667As1.1667Ni0.5Ti0.3333P3O12,13.329165,0.24909495229268672
Li0.1356As0.0763Ni0.0085Ti0.0169P0.1525O0.6102,Li2.6667As1.5Ni0.1667Ti0.3333P3O12,8.129335,0.11864801396213161
Li0.1356As0.0847Ni0.0000Ti0.0169P0.1525O0.6102,Li2.6667As1.6667Ni0.0Ti0.3333P3O12,8.129335,
Li0.1429As0.0000Ni0.0924Ti0.0084P0.1513O0.6050,Li2.8333As0.0Ni1.8333Ti0.1667P3O12,15.33442,
Li0.1429As0.0168Ni0.0756Ti0.0084P0.1513O0.6050,Li2.8333As0.3333Ni1.5Ti0.1667P3O12,15.393118,1.1521395338226426
Li0.1429As0.0252Ni0.0672Ti0.0084P0.1513O0.6050,Li2.8333As0.5Ni1.3333Ti0.1667P3O12,15.393118,1.2495238124881123
Li0.1429As0.0420Ni0.0504Ti0.0084P0.1513O0.6050,Li2.8333As0.8333Ni1.0Ti0.1667P3O12,15.325472,1.2716497054319782
Li0.1429As0.0504Ni0.0420Ti0.0084P0.1513O0.6050,Li2.8333As1.0Ni0.8333Ti0.1667P3O12,15.325472,0.36179485036194137
Li0.1429As0.0672Ni0.0252Ti0.0084P0.1513O0.6050,Li2.8333As1.3333Ni0.5Ti0.1667P3O12,15.280946,0.28676740278775115
Li0.1429As0.0756Ni0.0168Ti0.0084P0.1513O0.6050,Li2.8333As1.5Ni0.3333Ti0.1667P3O12,11.860868,0.22780750416857645
Li0.1429As0.0924Ni0.0000Ti0.0084P0.1513O0.6050,Li2.8333As1.8333Ni0.0Ti0.1667P3O12,11.860868,
Li0.1500As0.0000Ni0.1000Ti0.0000P0.1500O0.6000,Li3.0As0.0Ni2.0Ti0.0P3O12,18.680473,
Li0.1500As0.0083Ni0.0917Ti0.0000P0.1500O0.6000,Li3.0As0.1667Ni1.8333Ti0.0P3O12,18.680473,
Li0.1500As0.0167Ni0.0833Ti0.0000P0.1500O0.6000,Li3.0As0.3333Ni1.6667Ti0.0P3O12,18.680473,
Li0.1500As0.0250Ni0.0750Ti0.0000P0.1500O0.6000,Li3.0As0.5Ni1.5Ti0.0P3O12,18.739172,
Li0.1500As0.0333Ni0.0667Ti0.0000P0.1500O0.6000,Li3.0As0.6667Ni1.3333Ti0.0P3O12,18.739172,
Li0.1500As0.0417Ni0.0583Ti0.0000P0.1500O0.6000,Li3.0As0.8333Ni1.1667Ti0.0P3O12,18.671526,
Li0.1500As0.0500Ni0.0500Ti0.0000P0.1500O0.6000,Li3.0As1.0Ni1.0Ti0.0P3O12,18.671526,
Li0.1500As0.0583Ni0.0417Ti0.0000P0.1500O0.6000,Li3.0As1.1667Ni0.8333Ti0.0P3O12,18.671526,
Li0.1500As0.0667Ni0.0333Ti0.0000P0.1500O0.6000,Li3.0As1.3333Ni0.6667Ti0.0P3O12,18.627003,
Li0.1500As0.0750Ni0.0250Ti0.0000P0.1500O0.6000,Li3.0As1.5Ni0.5Ti0.0P3O12,18.627003,
Li0.1500As0.0833Ni0.0167Ti0.0000P0.1500O0.6000,Li3.0As1.6667Ni0.3333Ti0.0P3O12,15.206924,
Li0.1500As0.0917Ni0.0083Ti0.0000P0.1500O0.6000,Li3.0As1.8333Ni0.1667Ti0.0P3O12,15.206924,
Li0.1500As0.1000Ni0.0000Ti0.0000P0.1500O0.6000,Li3.0As2.0Ni0.0Ti0.0P3O12,15.206924,
Li0.0556As0.0000Sb0.0000Ti0.1111P0.1667O0.6667,Li1.0As0.0Sb0.0Ti2.0P3O12,7.7087817,
Li0.0642As0.0000Sb0.0092Ti0.1009P0.1651O0.6605,Li1.1667As0.0Sb0.1667Ti1.8333P3O12,7.7087817,
Li0.0642As0.0092Sb0.0000Ti0.1009P0.1651O0.6605,Li1.1667As0.1667Sb0.0Ti1.8333P3O12,7.7087817,
Li0.0727As0.0000Sb0.0182Ti0.0909P0.1636O0.6545,Li1.3333As0.0Sb0.3333Ti1.6667P3O12,8.6522875,
Li0.0727As0.0182Sb0.0000Ti0.0909P0.1636O0.6545,Li1.3333As0.3333Sb0.0Ti1.6667P3O12,7.7087817,
Li0.0811As0.0000Sb0.0270Ti0.0811P0.1622O0.6486,Li1.5As0.0Sb0.5Ti1.5P3O12,8.677033,
Li0.0811As0.0090Sb0.0180Ti0.0811P0.1622O0.6486,Li1.5As0.1667Sb0.3333Ti1.5P3O12,8.69431,0.05012800201557635
Li0.0811As0.0180Sb0.0090Ti0.0811P0.1622O0.6486,Li1.5As0.3333Sb0.1667Ti1.5P3O12,7.750805,0.08122467756209117
Li0.0811As0.0270Sb0.0000Ti0.0811P0.1622O0.6486,Li1.5As0.5Sb0.0Ti1.5P3O12,7.750805,
Li0.0893As0.0000Sb0.0357Ti0.0714P0.1607O0.6429,Li1.6667As0.0Sb0.6667Ti1.3333P3O12,9.055562,
Li0.0893As0.0089Sb0.0268Ti0.0714P0.1607O0.6429,Li1.6667As0.1667Sb0.5Ti1.3333P3O12,9.055562,0.04112168405506454
Li0.0893As0.0268Sb0.0089Ti0.0714P0.1607O0.6429,Li1.6667As0.5Sb0.1667Ti1.3333P3O12,8.129335,0.07697770110570505
Li0.0893As0.0357Sb0.0000Ti0.0714P0.1607O0.6429,Li1.6667As0.6667Sb0.0Ti1.3333P3O12,8.129335,
Li0.0973As0.0000Sb0.0442Ti0.0619P0.1593O0.6372,Li1.8333As0.0Sb0.8333Ti1.1667P3O12,9.055562,
Li0.0973As0.0177Sb0.0265Ti0.0619P0.1593O0.6372,Li1.8333As0.3333Sb0.5Ti1.1667P3O12,9.055562,0.041276885531943
Li0.0973As0.0265Sb0.0177Ti0.0619P0.1593O0.6372,Li1.8333As0.5Sb0.3333Ti1.1667P3O12,9.072839,0.04749460990882479
Li0.0973As0.0442Sb0.0000Ti0.0619P0.1593O0.6372,Li1.8333As0.8333Sb0.0Ti1.1667P3O12,8.129335,
Li0.1053As0.0000Sb0.0526Ti0.0526P0.1579O0.6316,Li2.0As0.0Sb1.0Ti1.0P3O12,9.055562,
Li0.1053As0.0088Sb0.0439Ti0.0526P0.1579O0.6316,Li2.0As0.1667Sb0.8333Ti1.0P3O12,9.055562,0.031024851326298085
Li0.1053As0.0175Sb0.0351Ti0.0526P0.1579O0.6316,Li2.0As0.3333Sb0.6667Ti1.0P3O12,9.055562,0.0347620412032588
Li0.1053As0.0263Sb0.0263Ti0.0526P0.1579O0.6316,Li2.0As0.5Sb0.5Ti1.0P3O12,9.055562,0.035969423316241374
Li0.1053As0.0351Sb0.0175Ti0.0526P0.1579O0.6316,Li2.0As0.6667Sb0.3333Ti1.0P3O12,9.072839,0.04227711166181461
Li0.1053As0.0439Sb0.0088Ti0.0526P0.1579O0.6316,Li2.0As0.8333Sb0.1667Ti1.0P3O12,8.129335,0.0643979767576943
Li0.1053As0.0526Sb0.0000Ti0.0526P0.1579O0.6316,Li2.0As1.0Sb0.0Ti1.0P3O12,8.129335,
Li0.1130As0.0000Sb0.0609Ti0.0435P0.1565O0.6261,Li2.1667As0.0Sb1.1667Ti0.8333P3O12,9.055562,
Li0.1130As0.0087Sb0.0522Ti0.0435P0.1565O0.6261,Li2.1667As0.1667Sb1.0Ti0.8333P3O12,9.055562,0.21144025943558664
Li0.1130As0.0261Sb0.0348Ti0.0435P0.1565O0.6261,Li2.1667As0.5Sb0.6667Ti0.8333P3O12,9.055562,6.37483735742083e-06
Li0.1130As0.0348Sb0.0261Ti0.0435P0.1565O0.6261,Li2.1667As0.6667Sb0.5Ti0.8333P3O12,9.055562,5.923888150897758e-06
Li0.1130As0.0522Sb0.0087Ti0.0435P0.1565O0.6261,Li2.1667As1.0Sb0.1667Ti0.8333P3O12,8.129335,0.010745559146931672
Li0.1130As0.0609Sb0.0000Ti0.0435P0.1565O0.6261,Li2.1667As1.1667Sb0.0Ti0.8333P3O12,8.129335,
Li0.1207As0.0000Sb0.0690Ti0.0345P0.1552O0.6207,Li2.3333As0.0Sb1.3333Ti0.6667P3O12,9.055562,
Li0.1207As0.0172Sb0.0517Ti0.0345P0.1552O0.6207,Li2.3333As0.3333Sb1.0Ti0.6667P3O12,9.055562,0.2583367228493591
Li0.1207As0.0259Sb0.0431Ti0.0345P0.1552O0.6207,Li2.3333As0.5Sb0.8333Ti0.6667P3O12,9.055562,4.4404656310923076e-06
Li0.1207As0.0431Sb0.0259Ti0.0345P0.1552O0.6207,Li2.3333As0.8333Sb0.5Ti0.6667P3O12,9.055562,3.94705721677811e-06
Li0.1207As0.0517Sb0.0172Ti0.0345P0.1552O0.6207,Li2.3333As1.0Sb0.3333Ti0.6667P3O12,9.072839,0.017393155512101105
Li0.1207As0.0690Sb0.0000Ti0.0345P0.1552O0.6207,Li2.3333As1.3333Sb0.0Ti0.6667P3O12,8.129335,
Li0.1282As0.0000Sb0.0769Ti0.0256P0.1538O0.6154,Li2.5As0.0Sb1.5Ti0.5P3O12,9.055562,
Li0.1282As0.0085Sb0.0684Ti0.0256P0.1538O0.6154,Li2.5As0.1667Sb1.3333Ti0.5P3O12,9.055562,0.2315858391873162
Li0.1282As0.0171Sb0.0598Ti0.0256P0.1538O0.6154,Li2.5As0.3333Sb1.1667Ti0.5P3O12,9.055562,0.2753421770936022
Li0.1282As0.0256Sb0.0513Ti0.0256P0.1538O0.6154,Li2.5As0.5Sb1.0Ti0.5P3O12,9.055562,0.27540612393033564
Li0.1282As0.0342Sb0.0427Ti0.0256P0.1538O0.6154,Li2.5As0.6667Sb0.8333Ti0.5P3O12,9.055562,2.6976549784793977e-06
Li0.1282As0.0427Sb0.0342Ti0.0256P0.1538O0.6154,Li2.5As0.8333Sb0.6667Ti0.5P3O12,9.055562,2.5515948328266522e-06
Li0.1282As0.0513Sb0.0256Ti0.0256P0.1538O0.6154,Li2.5As1.0Sb0.5Ti0.5P3O12,9.055562,0.022085568458211996
Li0.1282As0.0598Sb0.0171Ti0.0256P0.1538O0.6154,Li2.5As1.1667Sb0.3333Ti0.5P3O12,9.072839,0.018058688675448104
Li0.1282As0.0684Sb0.0085Ti0.0256P0.1538O0.6154,Li2.5As1.3333Sb0.1667Ti0.5P3O12,8.129335,0.011998035593887416
Li0.1282As0.0769Sb0.0000Ti0.0256P0.1538O0.6154,Li2.5As1.5Sb0.0Ti0.5P3O12,8.129335,
Li0.1356As0.0000Sb0.0847Ti0.0169P0.1525O0.6102,Li2.6667As0.0Sb1.6667Ti0.3333P3O12,9.055562,
Li0.1356As0.0085Sb0.0763Ti0.0169P0.1525O0.6102,Li2.6667As0.1667Sb1.5Ti0.3333P3O12,9.055562,0.2594129724315085
Li0.1356As0.0254Sb0.0593Ti0.0169P0.1525O0.6102,Li2.6667As0.5Sb1.1667Ti0.3333P3O12,9.055562,0.297609724618484
Li0.1356As0.0339Sb0.0508Ti0.0169P0.1525O0.6102,Li2.6667As0.6667Sb1.0Ti0.3333P3O12,9.055562,0.283711412524939
Li0.1356As0.0508Sb0.0339Ti0.0169P0.1525O0.6102,Li2.6667As1.0Sb0.6667Ti0.3333P3O12,9.055562,0.02658740438002311
Li0.1356As0.0593Sb0.0254Ti0.0169P0.1525O0.6102,Li2.6667As1.1667Sb0.5Ti0.3333P3O12,9.055562,0.023128129532515886
Li0.1356As0.0763Sb0.0085Ti0.0169P0.1525O0.6102,Li2.6667As1.5Sb0.1667Ti0.3333P3O12,8.129335,0.01301604570714663
Li0.1356As0.0847Sb0.0000Ti0.0169P0.1525O0.6102,Li2.6667As1.6667Sb0.0Ti0.3333P3O12,8.129335,
Li0.1429As0.0000Sb0.0924Ti0.0084P0.1513O0.6050,Li2.8333As0.0Sb1.8333Ti0.1667P3O12,12.787092,
Li0.1429As0.0168Sb0.0756Ti0.0084P0.1513O0.6050,Li2.8333As0.3333Sb1.5Ti0.1667P3O12,12.787092,0.3518697642252172
Li0.1429As0.0252Sb0.0672Ti0.0084P0.1513O0.6050,Li2.8333As0.5Sb1.3333Ti0.1667P3O12,12.787092,0.3369287424416546
Li0.1429As0.0420Sb0.0504Ti0.0084P0.1513O0.6050,Li2.8333As0.8333Sb1.0Ti0.1667P3O12,12.787092,0.3034198448883479
Li0.1429As0.0504Sb0.0420Ti0.0084P0.1513O0.6050,Li2.8333As1.0Sb0.8333Ti0.1667P3O12,12.787092,0.03287239887255028
Li0.1429As0.0672Sb0.0252Ti0.0084P0.1513O0.6050,Li2.8333As1.3333Sb0.5Ti0.1667P3O12,12.787092,0.025846581266888144
Li0.1429As0.0756Sb0.0168Ti0.0084P0.1513O0.6050,Li2.8333As1.5Sb0.3333Ti0.1667P3O12,12.804369,0.020960774124676538
Li0.1429As0.0924Sb0.0000Ti0.0084P0.1513O0.6050,Li2.8333As1.8333Sb0.0Ti0.1667P3O12,11.860868,
Li0.1500As0.0000Sb0.1000Ti0.0000P0.1500O0.6000,Li3.0As0.0Sb2.0Ti0.0P3O12,16.133144,
Li0.1500As0.0083Sb0.0917Ti0.0000P0.1500O0.6000,Li3.0As0.1667Sb1.8333Ti0.0P3O12,16.133144,
Li0.1500As0.0167Sb0.0833Ti0.0000P0.1500O0.6000,Li3.0As0.3333Sb1.6667Ti0.0P3O12,16.133144,
Li0.1500As0.0250Sb0.0750Ti0.0000P0.1500O0.6000,Li3.0As0.5Sb1.5Ti0.0P3O12,16.133144,
Li0.1500As0.0333Sb0.0667Ti0.0000P0.1500O0.6000,Li3.0As0.6667Sb1.3333Ti0.0P3O12,16.133144,
Li0.1500As0.0417Sb0.0583Ti0.0000P0.1500O0.6000,Li3.0As0.8333Sb1.1667Ti0.0P3O12,16.133144,
Li0.1500As0.0500Sb0.0500Ti0.0000P0.1500O0.6000,Li3.0As1.0Sb1.0Ti0.0P3O12,16.133144,
Li0.1500As0.0583Sb0.0417Ti0.0000P0.1500O0.6000,Li3.0As1.1667Sb0.8333Ti0.0P3O12,16.133144,
Li0.1500As0.0667Sb0.0333Ti0.0000P0.1500O0.6000,Li3.0As1.3333Sb0.6667Ti0.0P3O12,16.133144,
Li0.1500As0.0750Sb0.0250Ti0.0000P0.1500O0.6000,Li3.0As1.5Sb0.5Ti0.0P3O12,16.133144,
Li0.1500As0.0833Sb0.0167Ti0.0000P0.1500O0.6000,Li3.0As1.6667Sb0.3333Ti0.0P3O12,16.150421,
Li0.1500As0.0917Sb0.0083Ti0.0000P0.1500O0.6000,Li3.0As1.8333Sb0.1667Ti0.0P3O12,15.206924,
Li0.1500As0.1000Sb0.0000Ti0.0000P0.1500O0.6000,Li3.0As2.0Sb0.0Ti0.0P3O12,15.206924,
Li0.0556As0.0000Sc0.0000Ti0.1111P0.1667O0.6667,Li1.0As0.0Sc0.0Ti2.0P3O12,7.7087817,
Li0.0642As0.0000Sc0.0092Ti0.1009P0.1651O0.6605,Li1.1667As0.0Sc0.1667Ti1.8333P3O12,8.985445,
Li0.0642As0.0092Sc0.0000Ti0.1009P0.1651O0.6605,Li1.1667As0.1667Sc0.0Ti1.8333P3O12,7.7087817,
Li0.0727As0.0000Sc0.0182Ti0.0909P0.1636O0.6545,Li1.3333As0.0Sc0.3333Ti1.6667P3O12,11.915219,
Li0.0727As0.0182Sc0.0000Ti0.0909P0.1636O0.6545,Li1.3333As0.3333Sc0.0Ti1.6667P3O12,7.7087817,
Li0.0811As0.0000Sc0.0270Ti0.0811P0.1622O0.6486,Li1.5As0.0Sc0.5Ti1.5P3O12,6.105611,
Li0.0811As0.0090Sc0.0180Ti0.0811P0.1622O0.6486,Li1.5As0.1667Sc0.3333Ti1.5P3O12,11.957242,1.9268746269962058
Li0.0811As0.0180Sc0.0090Ti0.0811P0.1622O0.6486,Li1.5As0.3333Sc0.1667Ti1.5P3O12,9.027468,3.4574612707782224
Li0.0811As0.0270Sc0.0000Ti0.0811P0.1622O0.6486,Li1.5As0.5Sc0.0Ti1.5P3O12,7.750805,
Li0.0893As0.0000Sc0.0357Ti0.0714P0.1607O0.6429,Li1.6667As0.0Sc0.6667Ti1.3333P3O12,6.484139,
Li0.0893As0.0089Sc0.0268Ti0.0714P0.1607O0.6429,Li1.6667As0.1667Sc0.5Ti1.3333P3O12,6.484139,1.71714894748379
Li0.0893As0.0268Sc0.0089Ti0.0714P0.1607O0.6429,Li1.6667As0.5Sc0.1667Ti1.3333P3O12,9.405996,4.032978139977846
Li0.0893As0.0357Sc0.0000Ti0.0714P0.1607O0.6429,Li1.6667As0.6667Sc0.0Ti1.3333P3O12,8.129335,
Li0.0973As0.0000Sc0.0442Ti0.0619P0.1593O0.6372,Li1.8333As0.0Sc0.8333Ti1.1667P3O12,6.484139,
Li0.0973As0.0177Sc0.0265Ti0.0619P0.1593O0.6372,Li1.8333As0.3333Sc0.5Ti1.1667P3O12,6.484139,2.604639623215794
Li0.0973As0.0265Sc0.0177Ti0.0619P0.1593O0.6372,Li1.8333As0.5Sc0.3333Ti1.1667P3O12,12.335771,3.3481475752138254
Li0.0973As0.0442Sc0.0000Ti0.0619P0.1593O0.6372,Li1.8333As0.8333Sc0.0Ti1.1667P3O12,8.129335,
Li0.1053As0.0000Sc0.0526Ti0.0526P0.1579O0.6316,Li2.0As0.0Sc1.0Ti1.0P3O12,6.484139,
Li0.1053As0.0088Sc0.0439Ti0.0526P0.1579O0.6316,Li2.0As0.1667Sc0.8333Ti1.0P3O12,6.484139,1.5761152349239183
Li0.1053As0.0175Sc0.0351Ti0.0526P0.1579O0.6316,Li2.0As0.3333Sc0.6667Ti1.0P3O12,6.484139,2.4424288038124096
Li0.1053As0.0263Sc0.0263Ti0.0526P0.1579O0.6316,Li2.0As0.5Sc0.5Ti1.0P3O12,6.484139,3.0624345656550056
Li0.1053As0.0351Sc0.0175Ti0.0526P0.1579O0.6316,Li2.0As0.6667Sc0.3333Ti1.0P3O12,12.335771,3.618280211359577
Li0.1053As0.0439Sc0.0088Ti0.0526P0.1579O0.6316,Li2.0As0.8333Sc0.1667Ti1.0P3O12,9.405996,4.536469715854625
Li0.1053As0.0526Sc0.0000Ti0.0526P0.1579O0.6316,Li2.0As1.0Sc0.0Ti1.0P3O12,8.129335,
Li0.1130As0.0000Sc0.0609Ti0.0435P0.1565O0.6261,Li2.1667As0.0Sc1.1667Ti0.8333P3O12,6.484139,
Li0.1130As0.0087Sc0.0522Ti0.0435P0.1565O0.6261,Li2.1667As0.1667Sc1.0Ti0.8333P3O12,6.484139,0.4046168661022833
Li0.1130As0.0261Sc0.0348Ti0.0435P0.1565O0.6261,Li2.1667As0.5Sc0.6667Ti0.8333P3O12,6.484139,0.4970184481303846
Li0.1130As0.0348Sc0.0261Ti0.0435P0.1565O0.6261,Li2.1667As0.6667Sc0.5Ti0.8333P3O12,6.484139,0.5907906208319551
Li0.1130As0.0522Sc0.0087Ti0.0435P0.1565O0.6261,Li2.1667As1.0Sc0.1667Ti0.8333P3O12,9.405996,0.04302797583019854
Li0.1130As0.0609Sc0.0000Ti0.0435P0.1565O0.6261,Li2.1667As1.1667Sc0.0Ti0.8333P3O12,8.129335,
Li0.1207As0.0000Sc0.0690Ti0.0345P0.1552O0.6207,Li2.3333As0.0Sc1.3333Ti0.6667P3O12,6.484139,
Li0.1207As0.0172Sc0.0517Ti0.0345P0.1552O0.6207,Li2.3333As0.3333Sc1.0Ti0.6667P3O12,6.484139,0.5438929744473101
Li0.1207As0.0259Sc0.0431Ti0.0345P0.1552O0.6207,Li2.3333As0.5Sc0.8333Ti0.6667P3O12,6.484139,0.3895462303273876
Li0.1207As0.0431Sc0.0259Ti0.0345P0.1552O0.6207,Li2.3333As0.8333Sc0.5Ti0.6667P3O12,6.484139,0.5143880088695716
Li0.1207As0.0517Sc0.0172Ti0.0345P0.1552O0.6207,Li2.3333As1.0Sc0.3333Ti0.6667P3O12,12.335771,0.060252746064826695
Li0.1207As0.0690Sc0.0000Ti0.0345P0.1552O0.6207,Li2.3333As1.3333Sc0.0Ti0.6667P3O12,8.129335,
Li0.1282As0.0000Sc0.0769Ti0.0256P0.1538O0.6154,Li2.5As0.0Sc1.5Ti0.5P3O12,6.484139,
Li0.1282As0.0085Sc0.0684Ti0.0256P0.1538O0.6154,Li2.5As0.1667Sc1.3333Ti0.5P3O12,6.484139,0.44895059657923564
Li0.1282As0.0171Sc0.0598Ti0.0256P0.1538O0.6154,Li2.5As0.3333Sc1.1667Ti0.5P3O12,6.484139,0.5748267656759449
Li0.1282As0.0256Sc0.0513Ti0.0256P0.1538O0.6154,Li2.5As0.5Sc1.0Ti0.5P3O12,6.484139,0.6080490944090802
Li0.1282As0.0342Sc0.0427Ti0.0256P0.1538O0.6154,Li2.5As0.6667Sc0.8333Ti0.5P3O12,6.484139,0.326847322033155
Li0.1282As0.0427Sc0.0342Ti0.0256P0.1538O0.6154,Li2.5As0.8333Sc0.6667Ti0.5P3O12,6.484139,0.3691710204361174
Li0.1282As0.0513Sc0.0256Ti0.0256P0.1538O0.6154,Li2.5As1.0Sc0.5Ti0.5P3O12,6.484139,0.06794016808712237
Li0.1282As0.0598Sc0.0171Ti0.0256P0.1538O0.6154,Li2.5As1.1667Sc0.3333Ti0.5P3O12,12.335771,0.06726266152911325
Li0.1282As0.0684Sc0.0085Ti0.0256P0.1538O0.6154,Li2.5As1.3333Sc0.1667Ti0.5P3O12,9.405996,0.05186715023839941
Li0.1282As0.0769Sc0.0000Ti0.0256P0.1538O0.6154,Li2.5As1.5Sc0.0Ti0.5P3O12,8.129335,
Li0.1356As0.0000Sc0.0847Ti0.0169P0.1525O0.6102,Li2.6667As0.0Sc1.6667Ti0.3333P3O12,6.484139,
Li0.1356As0.0085Sc0.0763Ti0.0169P0.1525O0.6102,Li2.6667As0.1667Sc1.5Ti0.3333P3O12,6.484139,0.5112369285576126
Li0.1356As0.0254Sc0.0593Ti0.0169P0.1525O0.6102,Li2.6667As0.5Sc1.1667Ti0.3333P3O12,6.484139,0.687716960405039
Li0.1356As0.0339Sc0.0508Ti0.0169P0.1525O0.6102,Li2.6667As0.6667Sc1.0Ti0.3333P3O12,6.484139,0.6930248172575283
Li0.1356As0.0508Sc0.0339Ti0.0169P0.1525O0.6102,Li2.6667As1.0Sc0.6667Ti0.3333P3O12,6.484139,0.08678451285592505
Li0.1356As0.0593Sc0.0254Ti0.0169P0.1525O0.6102,Li2.6667As1.1667Sc0.5Ti0.3333P3O12,6.484139,0.08486080026726739
Li0.1356As0.0763Sc0.0085Ti0.0169P0.1525O0.6102,Li2.6667As1.5Sc0.1667Ti0.3333P3O12,9.405996,0.06149648695487938
Li0.1356As0.0847Sc0.0000Ti0.0169P0.1525O0.6102,Li2.6667As1.6667Sc0.0Ti0.3333P3O12,8.129335,
Li0.1429As0.0000Sc0.0924Ti0.0084P0.1513O0.6050,Li2.8333As0.0Sc1.8333Ti0.1667P3O12,10.380352,
Li0.1429As0.0168Sc0.0756Ti0.0084P0.1513O0.6050,Li2.8333As0.3333Sc1.5Ti0.1667P3O12,10.215678,0.8026394691415246
Li0.1429As0.0252Sc0.0672Ti0.0084P0.1513O0.6050,Li2.8333As0.5Sc1.3333Ti0.1667P3O12,10.215678,0.8541812341381673
Li0.1429As0.0420Sc0.0504Ti0.0084P0.1513O0.6050,Li2.8333As0.8333Sc1.0Ti0.1667P3O12,10.215678,0.8692684355043493
Li0.1429As0.0504Sc0.0420Ti0.0084P0.1513O0.6050,Li2.8333As1.0Sc0.8333Ti0.1667P3O12,10.215678,0.1338566898172237
Li0.1429As0.0672Sc0.0252Ti0.0084P0.1513O0.6050,Li2.8333As1.3333Sc0.5Ti0.1667P3O12,10.215678,0.11995539495593313