formula,original_formula,thermal_expansion,li ion conductivity
Li0.1356Co0.0847Ti0.0169P0.1525O0.6102,Li2.6667Co0.5Co1.1667Ti0.3333P3O12,8.147218,0.018472198763287928
Li0.1356Co0.0847Ti0.0169P0.1525O0.6102,Li2.6667Co0.6667Co1.0Ti0.3333P3O12,8.147218,0.01838608120862599
Li0.1356Co0.0847Ti0.0169P0.1525O0.6102,Li2.6667Co1.0Co0.6667Ti0.3333P3O12,8.147218,0.49794346033081843
Li0.1356Co0.0847Ti0.0169P0.1525O0.6102,Li2.6667Co1.1667Co0.5Ti0.3333P3O12,8.147218,0.45666415099320185
Li0.1356Co0.0847Ti0.0169P0.1525O0.6102,Li2.6667Co1.5Co0.1667Ti0.3333P3O12,8.147218,0.26912692608670835
Li0.1356Co0.0847Ti0.0169P0.1525O0.6102,Li2.6667Co1.6667Co0.0Ti0.3333P3O12,8.147218,
Li0.1429Co0.0924Ti0.0084P0.1513O0.6050,Li2.8333Co0.0Co1.8333Ti0.1667P3O12,11.87875,0.009017036341037475
Li0.1429Co0.0924Ti0.0084P0.1513O0.6050,Li2.8333Co0.3333Co1.5Ti0.1667P3O12,11.87875,0.008905932003834747
Li0.1429Co0.0924Ti0.0084P0.1513O0.6050,Li2.8333Co0.5Co1.3333Ti0.1667P3O12,11.87875,0.008844230281717921
Li0.1429Co0.0924Ti0.0084P0.1513O0.6050,Li2.8333Co0.8333Co1.0Ti0.1667P3O12,11.87875,0.008741606701337938
Li0.1429Co0.0924Ti0.0084P0.1513O0.6050,Li2.8333Co1.0Co0.8333Ti0.1667P3O12,11.87875,0.6206965664852911
Li0.1429Co0.0924Ti0.0084P0.1513O0.6050,Li2.8333Co1.3333Co0.5Ti0.1667P3O12,11.87875,0.5631529014412393
Li0.1429Co0.0924Ti0.0084P0.1513O0.6050,Li2.8333Co1.5Co0.3333Ti0.1667P3O12,11.87875,0.4877000386396663
Li0.1429Co0.0924Ti0.0084P0.1513O0.6050,Li2.8333Co1.8333Co0.0Ti0.1667P3O12,11.87875,
Li0.1500Co0.1000Ti0.0000P0.1500O0.6000,Li3.0Co0.0Co2.0Ti0.0P3O12,15.21023,
Li0.1500Co0.1000Ti0.0000P0.1500O0.6000,Li3.0Co0.1667Co1.8333Ti0.0P3O12,15.21023,
Li0.1500Co0.1000Ti0.0000P0.1500O0.6000,Li3.0Co0.3333Co1.6667Ti0.0P3O12,15.21023,
Li0.1500Co0.1000Ti0.0000P0.1500O0.6000,Li3.0Co0.5Co1.5Ti0.0P3O12,15.21023,
Li0.1500Co0.1000Ti0.0000P0.1500O0.6000,Li3.0Co0.6667Co1.3333Ti0.0P3O12,15.21023,
Li0.1500Co0.1000Ti0.0000P0.1500O0.6000,Li3.0Co0.8333Co1.1667Ti0.0P3O12,15.21023,
Li0.1500Co0.1000Ti0.0000P0.1500O0.6000,Li3.0Co1.0Co1.0Ti0.0P3O12,15.21023,
Li0.1500Co0.1000Ti0.0000P0.1500O0.6000,Li3.0Co1.1667Co0.8333Ti0.0P3O12,15.21023,
Li0.1500Co0.1000Ti0.0000P0.1500O0.6000,Li3.0Co1.3333Co0.6667Ti0.0P3O12,15.21023,
Li0.1500Co0.1000Ti0.0000P0.1500O0.6000,Li3.0Co1.5Co0.5Ti0.0P3O12,15.21023,
Li0.1500Co0.1000Ti0.0000P0.1500O0.6000,Li3.0Co1.6667Co0.3333Ti0.0P3O12,15.21023,
Li0.1500Co0.1000Ti0.0000P0.1500O0.6000,Li3.0Co1.8333Co0.1667Ti0.0P3O12,15.21023,
Li0.1500Co0.1000Ti0.0000P0.1500O0.6000,Li3.0Co2.0Co0.0Ti0.0P3O12,15.21023,
Li0.0556Co0.0000Cr0.0000Ti0.1111P0.1667O0.6667,Li1.0Co0.0Cr0.0Ti2.0P3O12,7.7087817,
Li0.0642Co0.0000Cr0.0092Ti0.1009P0.1651O0.6605,Li1.1667Co0.0Cr0.1667Ti1.8333P3O12,7.7087817,
Li0.0642Co0.0092Cr0.0000Ti0.1009P0.1651O0.6605,Li1.1667Co0.1667Cr0.0Ti1.8333P3O12,7.7087817,
Li0.0727Co0.0000Cr0.0182Ti0.0909P0.1636O0.6545,Li1.3333Co0.0Cr0.3333Ti1.6667P3O12,7.7087817,
Li0.0727Co0.0182Cr0.0000Ti0.0909P0.1636O0.6545,Li1.3333Co0.3333Cr0.0Ti1.6667P3O12,7.7087817,
Li0.0811Co0.0000Cr0.0270Ti0.0811P0.1622O0.6486,Li1.5Co0.0Cr0.5Ti1.5P3O12,7.750805,
Li0.0811Co0.0090Cr0.0180Ti0.0811P0.1622O0.6486,Li1.5Co0.1667Cr0.3333Ti1.5P3O12,7.750805,0.2234477212370049
Li0.0811Co0.0180Cr0.0090Ti0.0811P0.1622O0.6486,Li1.5Co0.3333Cr0.1667Ti1.5P3O12,7.750805,0.3760223601550073
Li0.0811Co0.0270Cr0.0000Ti0.0811P0.1622O0.6486,Li1.5Co0.5Cr0.0Ti1.5P3O12,7.750805,
Li0.0893Co0.0000Cr0.0357Ti0.0714P0.1607O0.6429,Li1.6667Co0.0Cr0.6667Ti1.3333P3O12,8.129335,
Li0.0893Co0.0089Cr0.0268Ti0.0714P0.1607O0.6429,Li1.6667Co0.1667Cr0.5Ti1.3333P3O12,8.129335,0.20057876640670433
Li0.0893Co0.0268Cr0.0089Ti0.0714P0.1607O0.6429,Li1.6667Co0.5Cr0.1667Ti1.3333P3O12,8.129335,0.4609103058932002
Li0.0893Co0.0357Cr0.0000Ti0.0714P0.1607O0.6429,Li1.6667Co0.6667Cr0.0Ti1.3333P3O12,8.129335,
Li0.0973Co0.0000Cr0.0442Ti0.0619P0.1593O0.6372,Li1.8333Co0.0Cr0.8333Ti1.1667P3O12,7.845156,
Li0.0973Co0.0177Cr0.0265Ti0.0619P0.1593O0.6372,Li1.8333Co0.3333Cr0.5Ti1.1667P3O12,8.129335,0.3096204988322869
Li0.0973Co0.0265Cr0.0177Ti0.0619P0.1593O0.6372,Li1.8333Co0.5Cr0.3333Ti1.1667P3O12,8.129335,0.42143151656245603
Li0.0973Co0.0442Cr0.0000Ti0.0619P0.1593O0.6372,Li1.8333Co0.8333Cr0.0Ti1.1667P3O12,8.147218,
Li0.1053Co0.0000Cr0.0526Ti0.0526P0.1579O0.6316,Li2.0Co0.0Cr1.0Ti1.0P3O12,7.845156,
Li0.1053Co0.0088Cr0.0439Ti0.0526P0.1579O0.6316,Li2.0Co0.1667Cr0.8333Ti1.0P3O12,7.845156,0.18524345479492202
Li0.1053Co0.0175Cr0.0351Ti0.0526P0.1579O0.6316,Li2.0Co0.3333Cr0.6667Ti1.0P3O12,8.129335,0.29711035961140936
Li0.1053Co0.0263Cr0.0263Ti0.0526P0.1579O0.6316,Li2.0Co0.5Cr0.5Ti1.0P3O12,8.129335,0.3971921823505446
Li0.1053Co0.0351Cr0.0175Ti0.0526P0.1579O0.6316,Li2.0Co0.6667Cr0.3333Ti1.0P3O12,8.129335,0.4799423348974291
Li0.1053Co0.0439Cr0.0088Ti0.0526P0.1579O0.6316,Li2.0Co0.8333Cr0.1667Ti1.0P3O12,8.147218,0.5861084099105307
Li0.1053Co0.0526Cr0.0000Ti0.0526P0.1579O0.6316,Li2.0Co1.0Cr0.0Ti1.0P3O12,8.147218,
Li0.1130Co0.0000Cr0.0609Ti0.0435P0.1565O0.6261,Li2.1667Co0.0Cr1.1667Ti0.8333P3O12,13.286617,
Li0.1130Co0.0087Cr0.0522Ti0.0435P0.1565O0.6261,Li2.1667Co0.1667Cr1.0Ti0.8333P3O12,7.845156,0.2932325654684078
Li0.1130Co0.0261Cr0.0348Ti0.0435P0.1565O0.6261,Li2.1667Co0.5Cr0.6667Ti0.8333P3O12,8.129335,0.06472895206104257
Li0.1130Co0.0348Cr0.0261Ti0.0435P0.1565O0.6261,Li2.1667Co0.6667Cr0.5Ti0.8333P3O12,8.129335,0.07636922053779864
Li0.1130Co0.0522Cr0.0087Ti0.0435P0.1565O0.6261,Li2.1667Co1.0Cr0.1667Ti0.8333P3O12,8.147218,0.08459065504098263
Li0.1130Co0.0609Cr0.0000Ti0.0435P0.1565O0.6261,Li2.1667Co1.1667Cr0.0Ti0.8333P3O12,8.147218,
Li0.1207Co0.0000Cr0.0690Ti0.0345P0.1552O0.6207,Li2.3333Co0.0Cr1.3333Ti0.6667P3O12,13.286617,
Li0.1207Co0.0172Cr0.0517Ti0.0345P0.1552O0.6207,Li2.3333Co0.3333Cr1.0Ti0.6667P3O12,7.845156,0.49206888029556456
Li0.1207Co0.0259Cr0.0431Ti0.0345P0.1552O0.6207,Li2.3333Co0.5Cr0.8333Ti0.6667P3O12,7.845156,0.06094550401759075
Li0.1207Co0.0431Cr0.0259Ti0.0345P0.1552O0.6207,Li2.3333Co0.8333Cr0.5Ti0.6667P3O12,8.147218,0.08060058891018584
Li0.1207Co0.0517Cr0.0172Ti0.0345P0.1552O0.6207,Li2.3333Co1.0Cr0.3333Ti0.6667P3O12,8.147218,0.17604418368114344
Li0.1207Co0.0690Cr0.0000Ti0.0345P0.1552O0.6207,Li2.3333Co1.3333Cr0.0Ti0.6667P3O12,8.147218,
Li0.1282Co0.0000Cr0.0769Ti0.0256P0.1538O0.6154,Li2.5Co0.0Cr1.5Ti0.5P3O12,13.286617,
Li0.1282Co0.0085Cr0.0684Ti0.0256P0.1538O0.6154,Li2.5Co0.1667Cr1.3333Ti0.5P3O12,13.286617,0.3388861765778822
Li0.1282Co0.0171Cr0.0598Ti0.0256P0.1538O0.6154,Li2.5Co0.3333Cr1.1667Ti0.5P3O12,7.845156,0.5205279043050427
Li0.1282Co0.0256Cr0.0513Ti0.0256P0.1538O0.6154,Li2.5Co0.5Cr1.0Ti0.5P3O12,7.845156,0.6524740954838777
Li0.1282Co0.0342Cr0.0427Ti0.0256P0.1538O0.6154,Li2.5Co0.6667Cr0.8333Ti0.5P3O12,7.845156,0.06758334855829168
Li0.1282Co0.0427Cr0.0342Ti0.0256P0.1538O0.6154,Li2.5Co0.8333Cr0.6667Ti0.5P3O12,8.147218,0.0754557296413154
Li0.1282Co0.0513Cr0.0256Ti0.0256P0.1538O0.6154,Li2.5Co1.0Cr0.5Ti0.5P3O12,8.147218,0.26237253476054645
Li0.1282Co0.0598Cr0.0171Ti0.0256P0.1538O0.6154,Li2.5Co1.1667Cr0.3333Ti0.5P3O12,8.147218,0.19044545515830216
Li0.1282Co0.0684Cr0.0085Ti0.0256P0.1538O0.6154,Li2.5Co1.3333Cr0.1667Ti0.5P3O12,8.147218,0.10459771326333879
Li0.1282Co0.0769Cr0.0000Ti0.0256P0.1538O0.6154,Li2.5Co1.5Cr0.0Ti0.5P3O12,8.147218,
Li0.1356Co0.0000Cr0.0847Ti0.0169P0.1525O0.6102,Li2.6667Co0.0Cr1.6667Ti0.3333P3O12,13.699678,
Li0.1356Co0.0085Cr0.0763Ti0.0169P0.1525O0.6102,Li2.6667Co0.1667Cr1.5Ti0.3333P3O12,13.286617,0.37643296372476537
Li0.1356Co0.0254Cr0.0593Ti0.0169P0.1525O0.6102,Li2.6667Co0.5Cr1.1667Ti0.3333P3O12,7.845156,0.6965602526903752
Li0.1356Co0.0339Cr0.0508Ti0.0169P0.1525O0.6102,Li2.6667Co0.6667Cr1.0Ti0.3333P3O12,7.845156,0.7975229216681753
Li0.1356Co0.0508Cr0.0339Ti0.0169P0.1525O0.6102,Li2.6667Co1.0Cr0.6667Ti0.3333P3O12,8.147218,0.34516713041075736
Li0.1356Co0.0593Cr0.0254Ti0.0169P0.1525O0.6102,Li2.6667Co1.1667Cr0.5Ti0.3333P3O12,8.147218,0.2823935532478429
Li0.1356Co0.0763Cr0.0085Ti0.0169P0.1525O0.6102,Li2.6667Co1.5Cr0.1667Ti0.3333P3O12,8.147218,0.12204083628946642
Li0.1356Co0.0847Cr0.0000Ti0.0169P0.1525O0.6102,Li2.6667Co1.6667Cr0.0Ti0.3333P3O12,8.147218,
Li0.1429Co0.0000Cr0.0924Ti0.0084P0.1513O0.6050,Li2.8333Co0.0Cr1.8333Ti0.1667P3O12,17.431204,
Li0.1429Co0.0168Cr0.0756Ti0.0084P0.1513O0.6050,Li2.8333Co0.3333Cr1.5Ti0.1667P3O12,17.018145,0.6433624446572932
Li0.1429Co0.0252Cr0.0672Ti0.0084P0.1513O0.6050,Li2.8333Co0.5Cr1.3333Ti0.1667P3O12,17.018145,0.781815569574517
Li0.1429Co0.0420Cr0.0504Ti0.0084P0.1513O0.6050,Li2.8333Co0.8333Cr1.0Ti0.1667P3O12,11.594573,0.981491125214702
Li0.1429Co0.0504Cr0.0420Ti0.0084P0.1513O0.6050,Li2.8333Co1.0Cr0.8333Ti0.1667P3O12,11.594573,0.44868695690160826
Li0.1429Co0.0672Cr0.0252Ti0.0084P0.1513O0.6050,Li2.8333Co1.3333Cr0.5Ti0.1667P3O12,11.87875,0.3313575053935782
Li0.1429Co0.0756Cr0.0168Ti0.0084P0.1513O0.6050,Li2.8333Co1.5Cr0.3333Ti0.1667P3O12,11.87875,0.2456734416917191
Li0.1429Co0.0924Cr0.0000Ti0.0084P0.1513O0.6050,Li2.8333Co1.8333Cr0.0Ti0.1667P3O12,11.87875,
Li0.1500Co0.0000Cr0.1000Ti0.0000P0.1500O0.6000,Li3.0Co0.0Cr2.0Ti0.0P3O12,17.903326,
Li0.1500Co0.0083Cr0.0917Ti0.0000P0.1500O0.6000,Li3.0Co0.1667Cr1.8333Ti0.0P3O12,17.903326,
Li0.1500Co0.0167Cr0.0833Ti0.0000P0.1500O0.6000,Li3.0Co0.3333Cr1.6667Ti0.0P3O12,17.903326,
Li0.1500Co0.0250Cr0.0750Ti0.0000P0.1500O0.6000,Li3.0Co0.5Cr1.5Ti0.0P3O12,17.490267,
Li0.1500Co0.0333Cr0.0667Ti0.0000P0.1500O0.6000,Li3.0Co0.6667Cr1.3333Ti0.0P3O12,17.490267,
Li0.1500Co0.0417Cr0.0583Ti0.0000P0.1500O0.6000,Li3.0Co0.8333Cr1.1667Ti0.0P3O12,14.940629,
Li0.1500Co0.0500Cr0.0500Ti0.0000P0.1500O0.6000,Li3.0Co1.0Cr1.0Ti0.0P3O12,14.940629,
Li0.1500Co0.0583Cr0.0417Ti0.0000P0.1500O0.6000,Li3.0Co1.1667Cr0.8333Ti0.0P3O12,14.940629,
Li0.1500Co0.0667Cr0.0333Ti0.0000P0.1500O0.6000,Li3.0Co1.3333Cr0.6667Ti0.0P3O12,15.224806,
Li0.1500Co0.0750Cr0.0250Ti0.0000P0.1500O0.6000,Li3.0Co1.5Cr0.5Ti0.0P3O12,15.224806,
Li0.1500Co0.0833Cr0.0167Ti0.0000P0.1500O0.6000,Li3.0Co1.6667Cr0.3333Ti0.0P3O12,15.224806,
Li0.1500Co0.0917Cr0.0083Ti0.0000P0.1500O0.6000,Li3.0Co1.8333Cr0.1667Ti0.0P3O12,15.224806,
Li0.1500Co0.1000Cr0.0000Ti0.0000P0.1500O0.6000,Li3.0Co2.0Cr0.0Ti0.0P3O12,15.21023,
Li0.0556Co0.0000Fe0.0000Ti0.1111P0.1667O0.6667,Li1.0Co0.0Fe0.0Ti2.0P3O12,7.7087817,
Li0.0642Co0.0000Fe0.0092Ti0.1009P0.1651O0.6605,Li1.1667Co0.0Fe0.1667Ti1.8333P3O12,7.7087817,
Li0.0642Co0.0092Fe0.0000Ti0.1009P0.1651O0.6605,Li1.1667Co0.1667Fe0.0Ti1.8333P3O12,7.7087817,
Li0.0727Co0.0000Fe0.0182Ti0.0909P0.1636O0.6545,Li1.3333Co0.0Fe0.3333Ti1.6667P3O12,7.7087817,
Li0.0727Co0.0182Fe0.0000Ti0.0909P0.1636O0.6545,Li1.3333Co0.3333Fe0.0Ti1.6667P3O12,7.7087817,
Li0.0811Co0.0000Fe0.0270Ti0.0811P0.1622O0.6486,Li1.5Co0.0Fe0.5Ti1.5P3O12,6.671572,
Li0.0811Co0.0090Fe0.0180Ti0.0811P0.1622O0.6486,Li1.5Co0.1667Fe0.3333Ti1.5P3O12,7.750805,0.45265065067980725
Li0.0811Co0.0180Fe0.0090Ti0.0811P0.1622O0.6486,Li1.5Co0.3333Fe0.1667Ti1.5P3O12,7.750805,0.7821615809524541
Li0.0811Co0.0270Fe0.0000Ti0.0811P0.1622O0.6486,Li1.5Co0.5Fe0.0Ti1.5P3O12,7.750805,
Li0.0893Co0.0000Fe0.0357Ti0.0714P0.1607O0.6429,Li1.6667Co0.0Fe0.6667Ti1.3333P3O12,7.0501,
Li0.0893Co0.0089Fe0.0268Ti0.0714P0.1607O0.6429,Li1.6667Co0.1667Fe0.5Ti1.3333P3O12,7.0501,0.4245529207548174
Li0.0893Co0.0268Fe0.0089Ti0.0714P0.1607O0.6429,Li1.6667Co0.5Fe0.1667Ti1.3333P3O12,8.129335,0.966180057142816
Li0.0893Co0.0357Fe0.0000Ti0.0714P0.1607O0.6429,Li1.6667Co0.6667Fe0.0Ti1.3333P3O12,8.129335,
Li0.0973Co0.0000Fe0.0442Ti0.0619P0.1593O0.6372,Li1.8333Co0.0Fe0.8333Ti1.1667P3O12,6.972733,
Li0.0973Co0.0177Fe0.0265Ti0.0619P0.1593O0.6372,Li1.8333Co0.3333Fe0.5Ti1.1667P3O12,7.0501,0.6551729281413029
Li0.0973Co0.0265Fe0.0177Ti0.0619P0.1593O0.6372,Li1.8333Co0.5Fe0.3333Ti1.1667P3O12,8.129335,0.8729353945332349
Li0.0973Co0.0442Fe0.0000Ti0.0619P0.1593O0.6372,Li1.8333Co0.8333Fe0.0Ti1.1667P3O12,8.147218,
Li0.1053Co0.0000Fe0.0526Ti0.0526P0.1579O0.6316,Li2.0Co0.0Fe1.0Ti1.0P3O12,7.040515,
Li0.1053Co0.0088Fe0.0439Ti0.0526P0.1579O0.6316,Li2.0Co0.1667Fe0.8333Ti1.0P3O12,6.972733,0.38788366189204937
Li0.1053Co0.0175Fe0.0351Ti0.0526P0.1579O0.6316,Li2.0Co0.3333Fe0.6667Ti1.0P3O12,7.0501,0.6357593427001202
Li0.1053Co0.0263Fe0.0263Ti0.0526P0.1579O0.6316,Li2.0Co0.5Fe0.5Ti1.0P3O12,7.0501,0.8279044062706375
Li0.1053Co0.0351Fe0.0175Ti0.0526P0.1579O0.6316,Li2.0Co0.6667Fe0.3333Ti1.0P3O12,8.129335,1.009014550434747
Li0.1053Co0.0439Fe0.0088Ti0.0526P0.1579O0.6316,Li2.0Co0.8333Fe0.1667Ti1.0P3O12,8.147218,1.223398785425359
Li0.1053Co0.0526Fe0.0000Ti0.0526P0.1579O0.6316,Li2.0Co1.0Fe0.0Ti1.0P3O12,8.147218,
Li0.1130Co0.0000Fe0.0609Ti0.0435P0.1565O0.6261,Li2.1667Co0.0Fe1.1667Ti0.8333P3O12,7.040515,
Li0.1130Co0.0087Fe0.0522Ti0.0435P0.1565O0.6261,Li2.1667Co0.1667Fe1.0Ti0.8333P3O12,6.972733,0.3258830422708867
Li0.1130Co0.0261Fe0.0348Ti0.0435P0.1565O0.6261,Li2.1667Co0.5Fe0.6667Ti0.8333P3O12,7.0501,0.08905423535053511
Li0.1130Co0.0348Fe0.0261Ti0.0435P0.1565O0.6261,Li2.1667Co0.6667Fe0.5Ti0.8333P3O12,7.0501,0.10283783143505433
Li0.1130Co0.0522Fe0.0087Ti0.0435P0.1565O0.6261,Li2.1667Co1.0Fe0.1667Ti0.8333P3O12,8.147218,0.26868081067491323
Li0.1130Co0.0609Fe0.0000Ti0.0435P0.1565O0.6261,Li2.1667Co1.1667Fe0.0Ti0.8333P3O12,8.147218,
Li0.1207Co0.0000Fe0.0690Ti0.0345P0.1552O0.6207,Li2.3333Co0.0Fe1.3333Ti0.6667P3O12,7.040515,
Li0.1207Co0.0172Fe0.0517Ti0.0345P0.1552O0.6207,Li2.3333Co0.3333Fe1.0Ti0.6667P3O12,6.972733,0.5518996911135485
Li0.1207Co0.0259Fe0.0431Ti0.0345P0.1552O0.6207,Li2.3333Co0.5Fe0.8333Ti0.6667P3O12,6.972733,0.08016046503434161
Li0.1207Co0.0431Fe0.0259Ti0.0345P0.1552O0.6207,Li2.3333Co0.8333Fe0.5Ti0.6667P3O12,7.061528,0.10412465321296695
Li0.1207Co0.0517Fe0.0172Ti0.0345P0.1552O0.6207,Li2.3333Co1.0Fe0.3333Ti0.6667P3O12,8.147218,0.4278655930924704
Li0.1207Co0.0690Fe0.0000Ti0.0345P0.1552O0.6207,Li2.3333Co1.3333Fe0.0Ti0.6667P3O12,8.147218,
Li0.1282Co0.0000Fe0.0769Ti0.0256P0.1538O0.6154,Li2.5Co0.0Fe1.5Ti0.5P3O12,7.040515,
Li0.1282Co0.0085Fe0.0684Ti0.0256P0.1538O0.6154,Li2.5Co0.1667Fe1.3333Ti0.5P3O12,7.040515,0.3729951596368632
Li0.1282Co0.0171Fe0.0598Ti0.0256P0.1538O0.6154,Li2.5Co0.3333Fe1.1667Ti0.5P3O12,7.040515,0.5912838104055924
Li0.1282Co0.0256Fe0.0513Ti0.0256P0.1538O0.6154,Li2.5Co0.5Fe1.0Ti0.5P3O12,6.972733,0.7512498477574397
Li0.1282Co0.0342Fe0.0427Ti0.0256P0.1538O0.6154,Li2.5Co0.6667Fe0.8333Ti0.5P3O12,6.972733,0.08236250046357375
Li0.1282Co0.0427Fe0.0342Ti0.0256P0.1538O0.6154,Li2.5Co0.8333Fe0.6667Ti0.5P3O12,7.061528,0.09204227615633288
Li0.1282Co0.0513Fe0.0256Ti0.0256P0.1538O0.6154,Li2.5Co1.0Fe0.5Ti0.5P3O12,7.061528,0.5283498762024884
Li0.1282Co0.0598Fe0.0171Ti0.0256P0.1538O0.6154,Li2.5Co1.1667Fe0.3333Ti0.5P3O12,8.147218,0.460065959714557
Li0.1282Co0.0684Fe0.0085Ti0.0256P0.1538O0.6154,Li2.5Co1.3333Fe0.1667Ti0.5P3O12,8.147218,0.3132775263986285
Li0.1282Co0.0769Fe0.0000Ti0.0256P0.1538O0.6154,Li2.5Co1.5Fe0.0Ti0.5P3O12,8.147218,
Li0.1356Co0.0000Fe0.0847Ti0.0169P0.1525O0.6102,Li2.6667Co0.0Fe1.6667Ti0.3333P3O12,7.040515,
Li0.1356Co0.0085Fe0.0763Ti0.0169P0.1525O0.6102,Li2.6667Co0.1667Fe1.5Ti0.3333P3O12,7.040515,0.41977663804692245
Li0.1356Co0.0254Fe0.0593Ti0.0169P0.1525O0.6102,Li2.6667Co0.5Fe1.1667Ti0.3333P3O12,7.040515,0.8115407668281986
Li0.1356Co0.0339Fe0.0508Ti0.0169P0.1525O0.6102,Li2.6667Co0.6667Fe1.0Ti0.3333P3O12,6.972733,0.9254281118837395
Li0.1356Co0.0508Fe0.0339Ti0.0169P0.1525O0.6102,Li2.6667Co1.0Fe0.6667Ti0.3333P3O12,7.061528,0.6560302372347577
Li0.1356Co0.0593Fe0.0254Ti0.0169P0.1525O0.6102,Li2.6667Co1.1667Fe0.5Ti0.3333P3O12,7.061528,0.5971779106679433
Li0.1356Co0.0763Fe0.0085Ti0.0169P0.1525O0.6102,Li2.6667Co1.5Fe0.1667Ti0.3333P3O12,8.147218,0.3605180106914174
Li0.1356Co0.0847Fe0.0000Ti0.0169P0.1525O0.6102,Li2.6667Co1.6667Fe0.0Ti0.3333P3O12,8.147218,
Li0.1429Co0.0000Fe0.0924Ti0.0084P0.1513O0.6050,Li2.8333Co0.0Fe1.8333Ti0.1667P3O12,10.772052,
Li0.1429Co0.0168Fe0.0756Ti0.0084P0.1513O0.6050,Li2.8333Co0.3333Fe1.5Ti0.1667P3O12,10.772052,0.759377767434196
Li0.1429Co0.0252Fe0.0672Ti0.0084P0.1513O0.6050,Li2.8333Co0.5Fe1.3333Ti0.1667P3O12,10.772052,0.9237769296469258
Li0.1429Co0.0420Fe0.0504Ti0.0084P0.1513O0.6050,Li2.8333Co0.8333Fe1.0Ti0.1667P3O12,10.715696,1.1343494531061864
Li0.1429Co0.0504Fe0.0420Ti0.0084P0.1513O0.6050,Li2.8333Co1.0Fe0.8333Ti0.1667P3O12,10.715696,0.8356432548719519
Li0.1429Co0.0672Fe0.0252Ti0.0084P0.1513O0.6050,Li2.8333Co1.3333Fe0.5Ti0.1667P3O12,10.793062,0.7147475559823091
Li0.1429Co0.0756Fe0.0168Ti0.0084P0.1513O0.6050,Li2.8333Co1.5Fe0.3333Ti0.1667P3O12,11.87875,0.6221279985759783
Li0.1429Co0.0924Fe0.0000Ti0.0084P0.1513O0.6050,Li2.8333Co1.8333Fe0.0Ti0.1667P3O12,11.87875,
Li0.1500Co0.0000Fe0.1000Ti0.0000P0.1500O0.6000,Li3.0Co0.0Fe2.0Ti0.0P3O12,13.206304,
Li0.1500Co0.0083Fe0.0917Ti0.0000P0.1500O0.6000,Li3.0Co0.1667Fe1.8333Ti0.0P3O12,13.332053,
Li0.1500Co0.0167Fe0.0833Ti0.0000P0.1500O0.6000,Li3.0Co0.3333Fe1.6667Ti0.0P3O12,13.332053,
Li0.1500Co0.0250Fe0.0750Ti0.0000P0.1500O0.6000,Li3.0Co0.5Fe1.5Ti0.0P3O12,13.332053,
Li0.1500Co0.0333Fe0.0667Ti0.0000P0.1500O0.6000,Li3.0Co0.6667Fe1.3333Ti0.0P3O12,13.332053,
Li0.1500Co0.0417Fe0.0583Ti0.0000P0.1500O0.6000,Li3.0Co0.8333Fe1.1667Ti0.0P3O12,13.34348,
Li0.1500Co0.0500Fe0.0500Ti0.0000P0.1500O0.6000,Li3.0Co1.0Fe1.0Ti0.0P3O12,13.275698,
Li0.1500Co0.0583Fe0.0417Ti0.0000P0.1500O0.6000,Li3.0Co1.1667Fe0.8333Ti0.0P3O12,13.275698,
Li0.1500Co0.0667Fe0.0333Ti0.0000P0.1500O0.6000,Li3.0Co1.3333Fe0.6667Ti0.0P3O12,13.353064,
Li0.1500Co0.0750Fe0.0250Ti0.0000P0.1500O0.6000,Li3.0Co1.5Fe0.5Ti0.0P3O12,13.353064,
Li0.1500Co0.0833Fe0.0167Ti0.0000P0.1500O0.6000,Li3.0Co1.6667Fe0.3333Ti0.0P3O12,15.224806,
Li0.1500Co0.0917Fe0.0083Ti0.0000P0.1500O0.6000,Li3.0Co1.8333Fe0.1667Ti0.0P3O12,15.224806,
Li0.1500Co0.1000Fe0.0000Ti0.0000P0.1500O0.6000,Li3.0Co2.0Fe0.0Ti0.0P3O12,15.21023,
Li0.0556Co0.0000Ga0.0000Ti0.1111P0.1667O0.6667,Li1.0Co0.0Ga0.0Ti2.0P3O12,7.7087817,
Li0.0642Co0.0000Ga0.0092Ti0.1009P0.1651O0.6605,Li1.1667Co0.0Ga0.1667Ti1.8333P3O12,7.7087817,
Li0.0642Co0.0092Ga0.0000Ti0.1009P0.1651O0.6605,Li1.1667Co0.1667Ga0.0Ti1.8333P3O12,7.7087817,
Li0.0727Co0.0000Ga0.0182Ti0.0909P0.1636O0.6545,Li1.3333Co0.0Ga0.3333Ti1.6667P3O12,7.678768,
Li0.0727Co0.0182Ga0.0000Ti0.0909P0.1636O0.6545,Li1.3333Co0.3333Ga0.0Ti1.6667P3O12,7.7087817,
Li0.0811Co0.0000Ga0.0270Ti0.0811P0.1622O0.6486,Li1.5Co0.0Ga0.5Ti1.5P3O12,7.7207913,
Li0.0811Co0.0090Ga0.0180Ti0.0811P0.1622O0.6486,Li1.5Co0.1667Ga0.3333Ti1.5P3O12,7.7207913,2.0534235666107006
Li0.0811Co0.0180Ga0.0090Ti0.0811P0.1622O0.6486,Li1.5Co0.3333Ga0.1667Ti1.5P3O12,7.750805,3.7202194757129132
Li0.0811Co0.0270Ga0.0000Ti0.0811P0.1622O0.6486,Li1.5Co0.5Ga0.0Ti1.5P3O12,7.750805,
Li0.0893Co0.0000Ga0.0357Ti0.0714P0.1607O0.6429,Li1.6667Co0.0Ga0.6667Ti1.3333P3O12,8.099321,
Li0.0893Co0.0089Ga0.0268Ti0.0714P0.1607O0.6429,Li1.6667Co0.1667Ga0.5Ti1.3333P3O12,8.099321,1.9282767419092923
Li0.0893Co0.0268Ga0.0089Ti0.0714P0.1607O0.6429,Li1.6667Co0.5Ga0.1667Ti1.3333P3O12,8.129335,4.857705365543813
Li0.0893Co0.0357Ga0.0000Ti0.0714P0.1607O0.6429,Li1.6667Co0.6667Ga0.0Ti1.3333P3O12,8.129335,
Li0.0973Co0.0000Ga0.0442Ti0.0619P0.1593O0.6372,Li1.8333Co0.0Ga0.8333Ti1.1667P3O12,8.099321,
Li0.0973Co0.0177Ga0.0265Ti0.0619P0.1593O0.6372,Li1.8333Co0.3333Ga0.5Ti1.1667P3O12,8.099321,3.1708060779630087
Li0.0973Co0.0265Ga0.0177Ti0.0619P0.1593O0.6372,Li1.8333Co0.5Ga0.3333Ti1.1667P3O12,8.099321,4.378448330286591
Li0.0973Co0.0442Ga0.0000Ti0.0619P0.1593O0.6372,Li1.8333Co0.8333Ga0.0Ti1.1667P3O12,8.147218,
Li0.1053Co0.0000Ga0.0526Ti0.0526P0.1579O0.6316,Li2.0Co0.0Ga1.0Ti1.0P3O12,8.099321,
Li0.1053Co0.0088Ga0.0439Ti0.0526P0.1579O0.6316,Li2.0Co0.1667Ga0.8333Ti1.0P3O12,8.099321,1.817014554199696
Li0.1053Co0.0175Ga0.0351Ti0.0526P0.1579O0.6316,Li2.0Co0.3333Ga0.6667Ti1.0P3O12,8.099321,3.067862967209963
Li0.1053Co0.0263Ga0.0263Ti0.0526P0.1579O0.6316,Li2.0Co0.5Ga0.5Ti1.0P3O12,8.099321,4.157085510908306
Li0.1053Co0.0351Ga0.0175Ti0.0526P0.1579O0.6316,Li2.0Co0.6667Ga0.3333Ti1.0P3O12,8.099321,5.286910883842066
Li0.1053Co0.0439Ga0.0088Ti0.0526P0.1579O0.6316,Li2.0Co0.8333Ga0.1667Ti1.0P3O12,8.147218,6.600389853500381
Li0.1053Co0.0526Ga0.0000Ti0.0526P0.1579O0.6316,Li2.0Co1.0Ga0.0Ti1.0P3O12,8.147218,
Li0.1130Co0.0000Ga0.0609Ti0.0435P0.1565O0.6261,Li2.1667Co0.0Ga1.1667Ti0.8333P3O12,6.7658024,
Li0.1130Co0.0087Ga0.0522Ti0.0435P0.1565O0.6261,Li2.1667Co0.1667Ga1.0Ti0.8333P3O12,8.099321,0.12171365604669183